<preamble>

<basis_specs>
===============================================================================
C                    Z=   6    Mass=  12.011        Charge= 0.99941    
Lmxo=2 Lmxkb= 1    BasisType=split      Semic=F
L=0  Nsemic=0  Cnfigmx=2
          i=1  nzeta=1  polorb=0  (2s)
            splnorm:   0.15000    
               vcte:    132.57    
               rinn:    4.5256    
               qcoe:    0.0000    
               qyuk:    0.0000    
               qwid:   0.10000E-01
                rcs:    6.0993    
            lambdas:    1.0000    
L=1  Nsemic=0  Cnfigmx=2
          i=1  nzeta=1  polorb=0  (2p)
            splnorm:   0.15000    
               vcte:    6.0639    
               rinn:    6.0646    
               qcoe:    0.0000    
               qyuk:    0.0000    
               qwid:   0.10000E-01
                rcs:    6.7408    
            lambdas:    1.0000    
L=2  Nsemic=0  Cnfigmx=3
          i=1  nzeta=1  polorb=0  (3d)
            splnorm:   0.15000    
               vcte:    14.478    
               rinn:    4.3208    
               qcoe:    0.0000    
               qyuk:    0.0000    
               qwid:   0.10000E-01
                rcs:    6.2537    
            lambdas:    1.0000    
-------------------------------------------------------------------------------
L=0  Nkbl=1  erefs: 0.17977+309
L=1  Nkbl=1  erefs: 0.17977+309
===============================================================================
</basis_specs>

<pseudopotential_header>
 C  pb nrl pcec
 ONCVPSP-3.2017-10-31Hamann's oncvpsp                        
 2s 2.00  r= 1.20/2p 2.00  r= 1.26/                                     2s:2p:
</pseudopotential_header>
</preamble>
C                             # Symbol
C                             # Label
    6                         # Atomic number
     4.00000000000                             # Valence charge
     12.0110000000        # Mass 
     20.7385030061        # Self energy 
   2   3                      # Lmax for basis, no. of nl orbitals 
   1   4                      # Lmax for projectors, no. of nl KB projectors
# PAOs:__________________________
  0  2  1  0  2.000000   #orbital l, n, z, is_polarized, population
 500    0.1222303129308663E-01     6.099292615250229     # npts, delta, cutoff
     0.000000000000000        0.4131641757818079    
    0.1222303129308663E-01    0.4135110632922234    
    0.2444606258617326E-01    0.4145548354284221    
    0.3666909387925989E-01    0.4162906973564804    
    0.4889212517234652E-01    0.4187130286986769    
    0.6111515646543315E-01    0.4218139966216612    
    0.7333818775851977E-01    0.4255835909643716    
    0.8556121905160641E-01    0.4300096691106872    
    0.9778425034469304E-01    0.4350780102339507    
    0.1100072816377797        0.4407723785484302    
    0.1222303129308663        0.4470745951546252    
    0.1344533442239529        0.4539646180160768    
    0.1466763755170395        0.4614206295598336    
    0.1588994068101262        0.4694191313519191    
    0.1711224381032128        0.4779350452633642    
    0.1833454693962994        0.4869418205115771    
    0.1955685006893861        0.4964115459363969    
    0.2077915319824727        0.5063150668498571    
    0.2200145632755593        0.5166221057836697    
    0.2322375945686460        0.5273013864486726    
    0.2444606258617326        0.5383207602158330    
    0.2566836571548192        0.5496473344289082    
    0.2689066884479059        0.5612476018642615    
    0.2811297197409925        0.5730875706634778    
    0.2933527510340791        0.5851328940791162    
    0.3055757823271658        0.5973489993927633    
    0.3177988136202524        0.6097012153872486    
    0.3300218449133390        0.6221548977810003    
    0.3422448762064256        0.6346755520617385    
    0.3544679074995123        0.6472289531884143    
    0.3666909387925989        0.6597812616642844    
    0.3789139700856856        0.6722991355196972    
    0.3911370013787722        0.6847498377802370    
    0.4033600326718588        0.6971013390339958    
    0.4155830639649454        0.7093224147505307    
    0.4278060952580320        0.7213827370433594    
    0.4400291265511187        0.7332529606072905    
    0.4522521578442053        0.7449048026014667    
    0.4644751891372920        0.7563111162881277    
    0.4766982204303786        0.7674459582763193    
    0.4889212517234652        0.7782846492578686    
    0.5011442830165518        0.7888038281607895    
    0.5133673143096384        0.7989814996817268    
    0.5255903456027251        0.8087970751942636    
    0.5378133768958118        0.8182314070635599    
    0.5500364081888983        0.8272668164291952    
    0.5622594394819850        0.8358871145471655    
    0.5744824707750716        0.8440776178083557    
    0.5867055020681582        0.8518251565736922    
    0.5989285333612449        0.8591180779860077    
    0.6111515646543315        0.8659462429347395    
    0.6233745959474182        0.8723010173620452    
    0.6355976272405047        0.8781752581082285    
    0.6478206585335914        0.8835632935005651    
    0.6600436898266780        0.8884608988937389    
    0.6722667211197647        0.8928652673725648    
    0.6844897524128513        0.8967749758300794    
    0.6967127837059379        0.9001899466370665    
    0.7089358149990246        0.9031114051241782    
    0.7211588462921111        0.9055418331060334    
    0.7333818775851978        0.9074849186889119    
    0.7456049088782845        0.9089455026204427    
    0.7578279401713711        0.9099295214610307    
    0.7700509714644577        0.9104439478823136    
    0.7822740027575443        0.9104967284263149    
    0.7944970340506310        0.9100967190884377    
    0.8067200653437175        0.9092536191159936    
    0.8189430966368042        0.9079779034385316    
    0.8311661279298909        0.9062807541646408    
    0.8433891592229775        0.9041739915895274    
    0.8556121905160641        0.9016700051566485    
    0.8678352218091507        0.8987816848045231    
    0.8800582531022374        0.8955223531060095    
    0.8922812843953239        0.8919056985737951    
    0.9045043156884106        0.8879457104643503    
    0.9167273469814973        0.8836566153665014    
    0.9289503782745839        0.8790528158134201    
    0.9411734095676705        0.8741488301030353    
    0.9533964408607571        0.8689592447930717    
    0.9656194721538438        0.8634986158532770    
    0.9778425034469305        0.8577816056228041    
    0.9900655347400170        0.8518226159052183    
     1.002288566033104        0.8456358751399575    
     1.014511597326190        0.8392355150257833    
     1.026734628619277        0.8326354252928339    
     1.038957659912364        0.8258492352813390    
     1.051180691205450        0.8188902765811410    
     1.063403722498537        0.8117715518987428    
     1.075626753791624        0.8045057069659849    
     1.087849785084710        0.7971050057868114    
     1.100072816377797        0.7895813092948925    
     1.112295847670883        0.7819460574790916    
     1.124518878963970        0.7742102550143974    
     1.136741910257057        0.7663844604131491    
     1.148964941550143        0.7584787786860264    
     1.161187972843230        0.7505028574767248    
     1.173411004136316        0.7424658865845225    
     1.185634035429403        0.7343766008891822    
     1.197857066722490        0.7262432864953647    
     1.210080098015576        0.7180737892317944    
     1.222303129308663        0.7098755318424956    
     1.234526160601750        0.7016555412351501    
     1.246749191894836        0.6934204719642958    
     1.258972223187923        0.6851766222755565    
     1.271195254481009        0.6769299497740555    
     1.283418285774096        0.6686860860604220    
     1.295641317067183        0.6604503509955586    
     1.307864348360269        0.6522277663463739    
     1.320087379653356        0.6440230687431324    
     1.332310410946443        0.6358407223404409    
     1.344533442239529        0.6276849309649769    
     1.356756473532616        0.6195596496139846    
     1.368979504825703        0.6114685952579582    
     1.381202536118789        0.6034152575686090    
     1.393425567411876        0.5954029090260182    
     1.405648598704963        0.5874346145409920    
     1.417871629998049        0.5795132408104545    
     1.430094661291136        0.5716414652308802    
     1.442317692584222        0.5638217844659049    
     1.454540723877309        0.5560565226775450    
     1.466763755170396        0.5483478394275116    
     1.478986786463482        0.5406977372670939    
     1.491209817756569        0.5331080690274436    
     1.503432849049656        0.5255805448216945    
     1.515655880342742        0.5181167387699194    
     1.527878911635829        0.5107180954570746    
     1.540101942928915        0.5033859361332939    
     1.552324974222002        0.4961214646653752    
     1.564548005515089        0.4889257732479477    
     1.576771036808175        0.4817998478823106    
     1.588994068101262        0.4747445736305792    
     1.601217099394349        0.4677607396526219    
     1.613440130687435        0.4608490440328208    
     1.625663161980522        0.4540100984037004    
     1.637886193273608        0.4472444323731993    
     1.650109224566695        0.4405524977621991    
     1.662332255859782        0.4339346726588722    
     1.674555287152868        0.4273912652962079    
     1.686778318445955        0.4209225177590514    
     1.699001349739041        0.4145286095268268    
     1.711224381032128        0.4082096608580795    
     1.723447412325215        0.4019657360228246    
     1.735670443618301        0.3957968463886419    
     1.747893474911388        0.3897029533662920    
     1.760116506204475        0.3836839712205807    
     1.772339537497561        0.3777397697520234    
     1.784562568790648        0.3718701768547760    
     1.796785600083735        0.3660749809561822    
     1.809008631376821        0.3603539333430542    
     1.821231662669908        0.3547067503797776    
     1.833454693962995        0.3491331156230366    
     1.845677725256081        0.3436326818379150    
     1.857900756549168        0.3382050729198373    
     1.870123787842254        0.3328498857267475    
     1.882346819135341        0.3275666918256508    
     1.894569850428428        0.3223550391574978    
     1.906792881721514        0.3172144536242017    
     1.919015913014601        0.3121444406013844    
     1.931238944307688        0.3071444863802811    
     1.943461975600774        0.3022140595420646    
     1.955685006893861        0.2973526122675948    
     1.967908038186947        0.2925595815856127    
     1.980131069480034        0.2878343905619814    
     1.992354100773121        0.2831764494327417    
     2.004577132066207        0.2785851566832592    
     2.016800163359294        0.2740599000759659    
     2.029023194652380        0.2696000576287643    
     2.041246225945467        0.2652049985462341    
     2.053469257238554        0.2608740841057082    
     2.065692288531641        0.2566066684999381    
     2.077915319824727        0.2524020996383759    
     2.090138351117814        0.2482597199085692    
     2.102361382410900        0.2441788668995479    
     2.114584413703987        0.2401588740885898    
     2.126807444997074        0.2361990714930738    
     2.139030476290160        0.2322987862887353    
     2.151253507583247        0.2284573433958865    
     2.163476538876334        0.2246740660348445    
     2.175699570169420        0.2209482762519927    
     2.187922601462507        0.2172792954176786    
     2.200145632755593        0.2136664446972302    
     2.212368664048680        0.2101090454962579    
     2.224591695341767        0.2066064198814055    
     2.236814726634853        0.2031578909776610    
     2.249037757927940        0.1997627833432828    
     2.261260789221026        0.1964204233233847    
     2.273483820514113        0.1931301393831469    
     2.285706851807200        0.1898912624216252    
     2.297929883100287        0.1867031260670354    
     2.310152914393373        0.1835650669543942    
     2.322375945686460        0.1804764249863569    
     2.334598976979546        0.1774365435779880    
     2.346822008272633        0.1744447698863024    
     2.359045039565720        0.1715004550251643    
     2.371268070858806        0.1686029542663708    
     2.383491102151893        0.1657516272274228    
     2.395714133444979        0.1629458380466632    
     2.407937164738066        0.1601849555463961    
     2.420160196031153        0.1574683533843389    
     2.432383227324240        0.1547954101943891    
     2.444606258617326        0.1521655097165701    
     2.456829289910412        0.1495780409172049    
     2.469052321203499        0.1470323980990932    
     2.481275352496586        0.1445279810024914    
     2.493498383789673        0.1420641948989267    
     2.505721415082759        0.1396404506748416    
     2.517944446375846        0.1372561649080008    
     2.530167477668932        0.1349107599349184    
     2.542390508962019        0.1326036639151188    
     2.554613540255106        0.1303343108806511    
     2.566836571548192        0.1281021407879529    
     2.579059602841279        0.1259065995544627    
     2.591282634134366        0.1237471391074000    
     2.603505665427452        0.1216232174123606    
     2.615728696720539        0.1195342984889356    
     2.627951728013625        0.1174798524309760    
     2.640174759306712        0.1154593554210755    
     2.652397790599799        0.1134722897343731    
     2.664620821892886        0.1115181437470484    
     2.676843853185972        0.1095964119328537    
     2.689066884479059        0.1077065948736086    
     2.701289915772145        0.1058481992480885    
     2.713512947065232        0.1040207378261433    
     2.725735978358319        0.1022237294524707    
     2.737959009651405        0.1004566990344165    
     2.750182040944492        0.9871917751998026E-01
     2.762405072237578        0.9701070187744085E-01
     2.774628103530665        0.9533081506936367E-01
     2.786851134823752        0.9367906602861119E-01
     2.799074166116838        0.9205500962792255E-01
     2.811297197409925        0.9045820664949898E-01
     2.823520228703011        0.8888822375058619E-01
     2.835743259996098        0.8734463342875361E-01
     2.847966291289185        0.8582701398446407E-01
     2.860189322582272        0.8433494948257993E-01
     2.872412353875358        0.8286802971172745E-01
     2.884635385168445        0.8142585014242709E-01
     2.896858416461531        0.8000801188372515E-01
     2.909081447754618        0.7861412163860199E-01
     2.921304479047705        0.7724379165813140E-01
     2.933527510340791        0.7589663969458332E-01
     2.945750541633878        0.7457228895345214E-01
     2.957973572926965        0.7327036804455499E-01
     2.970196604220051        0.7199051093229161E-01
     2.982419635513138        0.7073235688508436E-01
     2.994642666806224        0.6949555042410359E-01
     3.006865698099311        0.6827974127137278E-01
     3.019088729392398        0.6708458429725832E-01
     3.031311760685484        0.6590973946744091E-01
     3.043534791978571        0.6475487178945423E-01
     3.055757823271657        0.6361965125878782E-01
     3.067980854564744        0.6250375280464118E-01
     3.080203885857831        0.6140685623540959E-01
     3.092426917150918        0.6032864618388867E-01
     3.104649948444004        0.5926881205227812E-01
     3.116872979737091        0.5822704795705722E-01
     3.129096011030177        0.5720305267371581E-01
     3.141319042323264        0.5619652958140998E-01
     3.153542073616351        0.5520718660761146E-01
     3.165765104909437        0.5423473617272961E-01
     3.177988136202524        0.5327889513476603E-01
     3.190211167495610        0.5233938473406791E-01
     3.202434198788697        0.5141593053815071E-01
     3.214657230081784        0.5050826238666386E-01
     3.226880261374870        0.4961611433649994E-01
     3.239103292667957        0.4873922460711574E-01
     3.251326323961043        0.4787733552603384E-01
     3.263549355254130        0.4703019347457690E-01
     3.275772386547217        0.4619754883388525E-01
     3.287995417840304        0.4537915593118074E-01
     3.300218449133390        0.4457477298632551E-01
     3.312441480426477        0.4378416205872305E-01
     3.324664511719563        0.4300708899452097E-01
     3.336887543012650        0.4224332337417529E-01
     3.349110574305737        0.4149263846036350E-01
     3.361333605598823        0.4075481114630293E-01
     3.373556636891910        0.4002962190443111E-01
     3.385779668184997        0.3931685473549008E-01
     3.398002699478083        0.3861629711805010E-01
     3.410225730771170        0.3792773995842992E-01
     3.422448762064256        0.3725097754106575E-01
     3.434671793357343        0.3658580747930721E-01
     3.446894824650430        0.3593203066669860E-01
     3.459117855943517        0.3528945122868283E-01
     3.471340887236603        0.3465787647478245E-01
     3.483563918529689        0.3403711685126316E-01
     3.495786949822776        0.3342698589426030E-01
     3.508009981115863        0.3282730018339728E-01
     3.520233012408950        0.3223787929587051E-01
     3.532456043702036        0.3165854576106934E-01
     3.544679074995123        0.3108912501564268E-01
     3.556902106288209        0.3052944535907885E-01
     3.569125137581296        0.2997933790979197E-01
     3.581348168874383        0.2943863656169675E-01
     3.593571200167469        0.2890717794129299E-01
     3.605794231460556        0.2838480136523656E-01
     3.618017262753642        0.2787134879844876E-01
     3.630240294046729        0.2736666481269359E-01
     3.642463325339816        0.2687059654567693E-01
     3.654686356632902        0.2638299366063624E-01
     3.666909387925989        0.2590370830645499E-01
     3.679132419219076        0.2543259507825681E-01
     3.691355450512162        0.2496951097849887E-01
     3.703578481805249        0.2451431537858730E-01
     3.715801513098336        0.2406686998096447E-01
     3.728024544391422        0.2362703878170374E-01
     3.740247575684509        0.2319468803358282E-01
     3.752470606977595        0.2276968620967172E-01
     3.764693638270682        0.2235190396738319E-01
     3.776916669563769        0.2194121411301993E-01
     3.789139700856855        0.2153749156679065E-01
     3.801362732149942        0.2114061332832664E-01
     3.813585763443029        0.2075045844264956E-01
     3.825808794736115        0.2036690796662247E-01
     3.838031826029202        0.1998984493585654E-01
     3.850254857322288        0.1961915433210258E-01
     3.862477888615375        0.1925472305107993E-01
     3.874700919908462        0.1889643987077287E-01
     3.886923951201549        0.1854419542016774E-01
     3.899146982494635        0.1819788214845693E-01
     3.911370013787722        0.1785739429466532E-01
     3.923593045080808        0.1752262785772662E-01
     3.935816076373895        0.1719348056698392E-01
     3.948039107666982        0.1686985185313802E-01
     3.960262138960068        0.1655164281960229E-01
     3.972485170253155        0.1623875621428826E-01
     3.984708201546241        0.1593109640179828E-01
     3.996931232839328        0.1562856933604596E-01
     4.009154264132414        0.1533108253326627E-01
     4.021377295425501        0.1503854504543673E-01
     4.033600326718588        0.1475086743408775E-01
     4.045823358011675        0.1446796174452025E-01
     4.058046389304761        0.1418974148039560E-01
     4.070269420597848        0.1391612157871688E-01
     4.082492451890935        0.1364701838518052E-01
     4.094715483184021        0.1338234962991519E-01
     4.106938514477108        0.1312203440357496E-01
     4.119161545770194        0.1286599313380412E-01
     4.131384577063281        0.1261414756205372E-01
     4.143607608356367        0.1236642072076459E-01
     4.155830639649454        0.1212273691088761E-01
     4.168053670942541        0.1188302167975530E-01
     4.180276702235627        0.1164720179928717E-01
     4.192499733528714        0.1141520524454056E-01
     4.204722764821801        0.1118696117258229E-01
     4.216945796114888        0.1096239990169036E-01
     4.229168827407974        0.1074145289087686E-01
     4.241391858701061        0.1052405271972369E-01
     4.253614889994147        0.1031013306853860E-01
     4.265837921287233        0.1009962869881002E-01
     4.278060952580320        0.9892475433969443E-02
     4.290283983873407        0.9688610140448502E-02
     4.302507015166494        0.9487970709036493E-02
     4.314730046459580        0.9290496036520766E-02
     4.326953077752667        0.9096126007615815E-02
     4.339176109045754        0.8904801477170148E-02
     4.351399140338840        0.8716464252654588E-02
     4.363622171631927        0.8531057076917824E-02
     4.375845202925014        0.8348523611212163E-02
     4.388068234218101        0.8168808418523337E-02
     4.400291265511187        0.7991856946932377E-02
     4.412514296804273        0.7817615513723463E-02
     4.424737328097360        0.7646031289241301E-02
     4.436960359390446        0.7477052288875568E-02
     4.449183390683533        0.7310627324726579E-02
     4.461406421976620        0.7146706040537022E-02
     4.473629453269707        0.6985238866252909E-02
     4.485852484562793        0.6826177009374185E-02
     4.498075515855880        0.6669472533748312E-02
     4.510298547148967        0.6515077921374458E-02
     4.522521578442053        0.6362946737123287E-02
     4.534744609735140        0.6213033175509289E-02
     4.546967641028226        0.6065292332850229E-02
     4.559190672321313        0.5919679370701066E-02
     4.571413703614399        0.5776150708390992E-02
     4.583636734907486        0.5634663283320935E-02
     4.595859766200573        0.5495174681665708E-02
     4.608082797493659        0.5357641986747148E-02
     4.620305828786746        0.5222026687553429E-02
     4.632528860079833        0.5088287087712444E-02
     4.644751891372920        0.4956383072405353E-02
     4.656974922666006        0.4826275190387792E-02
     4.669197953959093        0.4697924808664712E-02
     4.681420985252180        0.4571294587651863E-02
     4.693644016545266        0.4446348502012296E-02
     4.705867047838352        0.4323052454679258E-02
     4.718090079131439        0.4201374694428184E-02
     4.730313110424526        0.4081288303563180E-02
     4.742536141717612        0.3962762761071851E-02
     4.754759173010699        0.3845779058157070E-02
     4.766982204303786        0.3730320619198878E-02
     4.779205235596873        0.3616375907095974E-02
     4.791428266889959        0.3503938434103568E-02
     4.803651298183046        0.3393008124201140E-02
     4.815874329476133        0.3283589374943627E-02
     4.828097360769219        0.3175692307716131E-02
     4.840320392062305        0.3069331070240378E-02
     4.852543423355392        0.2964528598329507E-02
     4.864766454648479        0.2861308700004823E-02
     4.876989485941565        0.2759700118545856E-02
     4.889212517234652        0.2659735026816299E-02
     4.901435548527739        0.2561448068654275E-02
     4.913658579820825        0.2464877418156685E-02
     4.925881611113912        0.2370061695390163E-02
     4.938104642406999        0.2277040841480254E-02
     4.950327673700086        0.2185855181433600E-02
     4.962550704993172        0.2096544947093712E-02
     4.974773736286259        0.2009149227239576E-02
     4.986996767579345        0.1923706151193769E-02
     4.999219798872431        0.1840251958026649E-02
     5.011442830165518        0.1758820634204865E-02
     5.023665861458605        0.1679443500783259E-02
     5.035888892751692        0.1602149036651550E-02
     5.048111924044778        0.1526961707119541E-02
     5.060334955337865        0.1453903080517598E-02
     5.072557986630952        0.1382990688053800E-02
     5.084781017924038        0.1314238064432459E-02
     5.097004049217125        0.1247654780023178E-02
     5.109227080510212        0.1183245627909000E-02
     5.121450111803298        0.1121011731571365E-02
     5.133673143096384        0.1060949784898835E-02
     5.145896174389471        0.1003052255868858E-02
     5.158119205682558        0.9473075587279377E-03
     5.170342236975644        0.8936996637670869E-03
     5.182565268268731        0.8422089652975285E-03
     5.194788299561818        0.7928119476238885E-03
     5.207011330854905        0.7454814601744399E-03
     5.219234362147991        0.7001869589490805E-03
     5.231457393441078        0.6568944629321308E-03
     5.243680424734165        0.6155671349427290E-03
     5.255903456027251        0.5761652767734077E-03
     5.268126487320338        0.5386466121688815E-03
     5.280349518613424        0.5029665239812319E-03
     5.292572549906511        0.4690783053419562E-03
     5.304795581199597        0.4369333547400603E-03
     5.317018612492684        0.4064814923844877E-03
     5.329241643785771        0.3776711500402374E-03
     5.341464675078857        0.3504496178726982E-03
     5.353687706371944        0.3247632514927844E-03
     5.365910737665031        0.3005577916186837E-03
     5.378133768958118        0.2777784307458567E-03
     5.390356800251204        0.2563701136525001E-03
     5.402579831544291        0.2362777124184288E-03
     5.414802862837377        0.2174462126644600E-03
     5.427025894130463        0.1998208413129468E-03
     5.439248925423550        0.1833474398705807E-03
     5.451471956716637        0.1679722805881822E-03
     5.463694988009724        0.1536424281688226E-03
     5.475918019302810        0.1403058142707675E-03
     5.488141050595897        0.1279112428083352E-03
     5.500364081888984        0.1164089563245454E-03
     5.512587113182070        0.1057500195193371E-03
     5.524810144475157        0.9588684404065251E-04
     5.537033175768244        0.8677315231824443E-04
     5.549256207061330        0.7836403202000966E-04
     5.561479238354416        0.7062480481559341E-04
     5.573702269647503        0.6349283550888490E-04
     5.585925300940590        0.5693732012337410E-04
     5.598148332233676        0.5092023614298205E-04
     5.610371363526763        0.4540532348306689E-04
     5.622594394819850        0.4035780809381099E-04
     5.634817426112937        0.3568845413025969E-04
     5.647040457406023        0.3149900823999431E-04
     5.659263488699110        0.2768912820899910E-04
     5.671486519992197        0.2421858228345263E-04
     5.683709551285283        0.2104547240529632E-04
     5.695932582578370        0.1831897885565586E-04
     5.708155613871456        0.1558489436532895E-04
     5.720378645164543        0.1298624175687472E-04
     5.732601676457629        0.1051235403828280E-04
     5.744824707750716        0.8170677469152413E-05
     5.757047739043803        0.5985338641540897E-05
     5.769270770336889        0.3662605774330835E-05
     5.781493801629976        0.1979396166590797E-05
     5.793716832923063        0.6619409309169644E-06
     5.805939864216150       -0.2735606790937215E-06
     5.818162895509236       -0.8344582652418366E-06
     5.830385926802323       -0.1052442338015796E-05
     5.842608958095409       -0.7779942976672788E-06
     5.854831989388495       -0.5369663147678458E-06
     5.867055020681582       -0.2132110708073309E-06
     5.879278051974669        0.1181695951035939E-06
     5.891501083267756        0.3918181383963474E-06
     5.903724114560842        0.5575891683864490E-06
     5.915947145853929        0.3359647896630969E-06
     5.928170177147016        0.2599124316040454E-06
     5.940393208440102        0.1189980801530256E-06
     5.952616239733189       -0.5931112851282044E-07
     5.964839271026276       -0.2396374819455234E-06
     5.977062302319363       -0.3824925414462953E-06
     5.989285333612449       -0.1463224228047669E-06
     6.001508364905535       -0.1282749018321246E-06
     6.013731396198622       -0.7152146833920419E-07
     6.025954427491708        0.2083225008023823E-07
     6.038177458784795        0.1380241258202772E-06
     6.050400490077882        0.2601757979511255E-06
     6.062623521370969         0.000000000000000    
     6.074846552664055         0.000000000000000    
     6.087069583957142         0.000000000000000    
     6.099292615250229         0.000000000000000    
  1  2  1  0  2.000000   #orbital l, n, z, is_polarized, population
 500    0.1350862578753867E-01     6.740804267981795     # npts, delta, cutoff
     0.000000000000000         3.393149801048793    
    0.1350862578753867E-01     3.391959895473014    
    0.2701725157507733E-01     3.388392513649459    
    0.4052587736261599E-01     3.382455704404031    
    0.5403450315015466E-01     3.374162712489969    
    0.6754312893769333E-01     3.363532083746319    
    0.8105175472523199E-01     3.350587665639058    
    0.9456038051277066E-01     3.335358603682505    
    0.1080690063003093         3.317879330927657    
    0.1215776320878480         3.298189547240413    
    0.1350862578753867         3.276334184810946    
    0.1485948836629253         3.252363356199397    
    0.1621035094504640         3.226332281232465    
    0.1756121352380026         3.198301189220878    
    0.1891207610255413         3.168335193261919    
    0.2026293868130800         3.136504133818064    
    0.2161380126006187         3.102882389306423    
    0.2296466383881573         3.067548652078655    
    0.2431552641756960         3.030585668897365    