Siesta Version  : 5.0.0-alpha-112-g6e4f53aee-dirty
Architecture    : ----
Compiler version: Intel-2021.8.0.20221119
Compiler flags  : -O2 -ip -xHost -fp-model=strict -prec-div -prec-sqrt
PP flags        : ----
Libraries       : ----
Parallelisations: MPI
GEMM3M support
NetCDF support
NetCDF-4 support

Runtime information:
* Directory : /n/holylabs/LABS/kaxiras_lab/axzhu/projects/AM207-final-project/N_9/DFT-structures
* Running on 64 nodes in parallel.
>> Start of run:   1-DEC-2024   6:30:01

                           *********************** 
                           *  WELCOME TO SIESTA  * 
                           *********************** 

reinit: Reading from standard input
reinit: Dumping input in INPUT_TMP.18676
************************** Dump of input data file ****************************
#################################
#				#
#	Basic Information	#
#	      			#
#################################
SystemName      Graphene
SystemLabel     Graphene
#########################################
#					#
#	Structural Information		#
#					#
#########################################
%include structure.fdf
#################################
#                               #
#       DFT Parameters          #
#                               #
#################################
SolutionMethod diagon           # Method of solving system. Can change to OrderN, transiesta, etc.
#Diag.Algorithm MRRR
#NumberOfEigenStates -20 # this will include first 10 conduction bands
XC.Functional   GGA
XC.Authors      PBE
DFTD3 true
Spin non-polarized
# This is causing memory issues, keep it low for now.
Mesh.Cutoff 300 Ry              # Cut off plane waves with kinetic energy higher than this.
MaxSCFIterations 300            # Max number of iterations in the SCF loop.
DM.UseSaveDM true
MinSCFIterations       3
SCF.DM.Tolerance       0.0001
SCF.Mixer.Weight       0.10
SCF.Mixer.History      12
SCF.Mix.First          true
#################################
#                               #
#             Basis             #
#                               #
#################################
#PAO.BasisSize   DZP
PAO.Basis < basis.fdf
#########################################
#					#
#	k-points, Bands, DOS		#
#		  	 		#
#########################################
%block kgrid_Monkhorst_Pack
   1  0  0  0.0
   0  1  0  0.0
   0  0  1  0.0
%endblock kgrid_Monkhorst_Pack
#BandLinesScale ReciprocalLatticeVectors
#%block BandLines
#1   0.6666666667  0.3333333333  0.0000000000  K
#10  0.0000000000  0.0000000000  0.0000000000  Gamma
#10  0.5000000000  0.0000000000  0.0000000000  M
#10  0.6666666667  0.3333333333  0.0000000000  K
#%endblock BandLines
# Local density of states (LDOS)
# %block LocalDensityOfStates
# EF 8.40 8.50 eV
# %endblock LocalDensityOfStates
#########################################
#                                       #
#             Wavefunctions             #
#                                       #
#########################################
#WaveFuncKPointsScale ReciprocalLatticeVectors
#%block WaveFuncKPoints
#0.666 0.333 0.000 from 4375 to 4378 # K wavefuncs 4375 to 4378
#0.000 0.000 0.000 from 4375 to 4378 # Gamma wavefuncs 4375 to 4378
#0.500 0.000 0.000 from 4375 to 4378 # M wavefuncs 4375 to 4378
#%endblock WaveFuncKPoints
#WriteDenchar T
#########################################
#                                       #
#       Geometry Optimisation           #
#                                       #
#########################################
MD.UseSaveXV true
MD.TypeOfRun           CG                  # Conjugate Gradient
MD.NumCGsteps          200                 # Max number of steps
MD.MaxForceTol         0.01    eV/Ang      # 10 meV/Ang
MD.VariableCell        false               # Don't relax cell
MD.MaxCGDispl          0.5 Bohr            # Maximum displacement of any atom
# Fix COM in Z direction only
%block Geometry.Constraints
 center all 0.0 0.0 1.0
%endblock Geometry.Constraints
************************** End of input data file *****************************

reinit: -----------------------------------------------------------------------
reinit: System Name: Graphene
reinit: -----------------------------------------------------------------------
reinit: System Label: Graphene
reinit: -----------------------------------------------------------------------

initatom: Reading input for the pseudopotentials and atomic orbitals ----------
Species number:   1 Atomic number:    6 Label: C
 

---- Processing specs for species: C
Ground state valence configuration:   2s02  2p02
Reading pseudopotential information in PSML from:
  C.psml
PSML file version: 1.1
Using libxc ids:  101 130
GGA--PBE XC_GGA_X_PBE--XC_GGA_C_PBE pb
 Using ATOM defaults for log grid...
PSML uuid: 297821e0-be41-11e7-6802-e1ff7dfff095

---- Pseudopotential check for C 

Pseudized shells:
2s( 2.00) rc: 1.20
2p( 2.00) rc: 1.26
Valence configuration for ps generation: 2s:2p: Total charge:   4.000000
For C, standard SIESTA heuristics set lmxkb to 3
 (one more than the basis l, including polarization orbitals).
Use PS.lmax or PS.KBprojectors blocks to override.
C pseudopotential only contains V_ls up to l=1 -- lmxkb reset.

<basis_specs>
===============================================================================
C                    Z=   6    Mass=  12.011        Charge= 0.99941    
Lmxo=2 Lmxkb= 1    BasisType=split      Semic=F
L=0  Nsemic=0  Cnfigmx=2
          i=1  nzeta=1  polorb=0  (2s)
            splnorm:   0.15000    
               vcte:    132.57    
               rinn:    4.5256    
               qcoe:    0.0000    
               qyuk:    0.0000    
               qwid:   0.10000E-01
                rcs:    6.0009    
            lambdas:    1.0000    
L=1  Nsemic=0  Cnfigmx=2
          i=1  nzeta=1  polorb=0  (2p)
            splnorm:   0.15000    
               vcte:    6.0639    
               rinn:    6.0646    
               qcoe:    0.0000    
               qyuk:    0.0000    
               qwid:   0.10000E-01
                rcs:    6.7108    
            lambdas:    1.0000    
L=2  Nsemic=0  Cnfigmx=3
          i=1  nzeta=1  polorb=0  (3d)
            splnorm:   0.15000    
               vcte:    14.478    
               rinn:    4.3208    
               qcoe:    0.0000    
               qyuk:    0.0000    
               qwid:   0.10000E-01
                rcs:    6.2254    
            lambdas:    1.0000    
-------------------------------------------------------------------------------
L=0  Nkbl=1  erefs: 0.17977+309
L=1  Nkbl=1  erefs: 0.17977+309
===============================================================================
</basis_specs>

atom: Called for C                     (Z =   6)
NOTE: C pseudopotential has channels up to l= 1
NOTE: PAOs with higher l will be generated with V_local

read_vps: Pseudopotential generation method:
read_vps: ONCVPSP-3.Hamann's oncvpsp                        
Valence charge in pseudo generation:    4.00000

read_vps: Pseudopotential includes a core correction:
read_vps: Pseudo-core for xc-correction

xc_check: Exchange-correlation functional:
xc_check: GGA Perdew, Burke & Ernzerhof 1996
Got Vlocal (oncv-fit) from psml data
Choosing vlocal chloc cutoff:  4.139772
qtot up to nchloc:    3.99998844
atom: Maximum radius for chlocal:    4.13977
atom: Maximum radius for r*vlocal+2*Zval:    4.13977
Reading KB projs from C psml data
Using scalar-relativistic projectors in PSML file

PSML: Kleinman-Bylander projectors: 
   l= 0   rc=  1.231096   Ekb= 12.963096
   l= 0   rc=  1.231096   Ekb=  0.771007
   l= 1   rc=  1.294237   Ekb= -8.399923
   l= 1   rc=  1.294237   Ekb= -1.755033

PSML: Total number of  Kleinman-Bylander projectors:   8
atom: -------------------------------------------------------------------------

atom: SANKEY-TYPE ORBITALS:

atom: basis set generated (by rescaling the valence charge)
atom: for a cation of charge   0.9994

SPLIT: Orbitals with angular momentum L= 0

SPLIT: Basis orbitals for state 2s

   izeta = 1
                 lambda =    1.000000
                     rc =    6.099293
                 energy =   -2.079355
                kinetic =    1.090115
    potential(screened) =   -3.169470
       potential(ionic) =   -5.727963

SPLIT: Orbitals with angular momentum L= 1

SPLIT: Basis orbitals for state 2p

   izeta = 1
                 lambda =    1.000000
                     rc =    6.740804
                 energy =   -1.441657
                kinetic =    3.222058
    potential(screened) =   -4.663715
       potential(ionic) =   -7.206130
*Note: V_local used for l= 2

** Using vlocal for PAOs with L= 2

SPLIT: Orbitals with angular momentum L= 2

SPLIT: Basis orbitals for state 3d

   izeta = 1
                 lambda =    1.000000
                     rc =    6.253707
                 energy =    0.017329
                kinetic =    1.197074
    potential(screened) =   -1.179745
       potential(ionic) =   -2.838380
atom: Total number of Sankey-type orbitals:  9

atm_pop: Valence configuration (for local Pseudopot. screening):
 2s( 2.00)                                                            
 2p( 2.00)                                                            
 3d( 0.00)                                                            
Vna: chval, zval:    4.00000   4.00000

Vna:  Cut-off radius for the neutral-atom potential:   6.740804
comcore: Pseudo-core radius Rcore=  1.682861

atom: _________________________________________________________________________

prinput: Basis input 

PAO.BasisType split     

%block ChemicalSpeciesLabel
    1    6 C                       # Species index, atomic number, species label
%endblock ChemicalSpeciesLabel

%block PAO.Basis                 # Define Basis set
# WARNING: This information might be incomplete!
C                     3   0.999            # Label, l-shells, ionic net charge
 n=2   0   1                         # n, l, Nzeta 
   6.099   
   1.000   
 n=2   1   1                         # n, l, Nzeta 
   6.741   
   1.000   
 n=3   2   1                         # n, l, Nzeta 
   6.254   
   1.000   
%endblock PAO.Basis

prinput: ----------------------------------------------------------------------

Dumping basis to NetCDF file C.ion.nc
coor:   Atomic-coordinates input format  =     Cartesian coordinates
coor:                                          (in Angstroms)

ioxv: Reading coordinates and velocities from file
! Info in XV file prevails over previous structure input

siesta: Atomic coordinates (Bohr) and species
siesta:      2.68394   0.00000  34.62923  1        1
siesta:     10.73577   0.00000  34.62923  1        2
siesta:     18.78760   0.00000  34.62923  1        3
siesta:     26.83943   0.00000  34.62923  1        4
siesta:     34.89126   0.00000  34.62923  1        5
siesta:     42.94309   0.00000  34.62923  1        6
siesta:     50.99492   0.00000  34.62923  1        7
siesta:     59.04675   0.00000  34.62923  1        8
siesta:     67.09858   0.00000  34.62923  1        9
siesta:      6.70986   2.32436  34.62923  1       10
siesta:     14.76169   2.32436  34.62923  1       11
siesta:     22.81352   2.32436  34.62923  1       12
siesta:     30.86535   2.32436  34.62923  1       13
siesta:     38.91718   2.32436  34.62923  1       14
siesta:     46.96901   2.32436  34.62923  1       15
siesta:     55.02084   2.32436  34.62923  1       16
siesta:     63.07267   2.32436  34.62923  1       17
siesta:     71.12450   2.32436  34.62923  1       18
siesta:     10.73577   4.64873  34.62923  1       19
siesta:     18.78760   4.64873  34.62923  1       20
siesta:     26.83943   4.64873  34.62923  1       21
siesta:     34.89126   4.64873  34.62923  1       22
siesta:     42.94309   4.64873  34.62923  1       23
siesta:     50.99492   4.64873  34.62923  1       24
siesta:     59.04675   4.64873  34.62923  1       25
siesta:     67.09858   4.64873  34.62923  1       26
siesta:      6.70986   6.97309  34.62923  1       27
siesta:     14.76169   6.97309  34.62923  1       28
siesta:     22.81352   6.97309  34.62923  1       29
siesta:     30.86535   6.97309  34.62923  1       30
siesta:     38.91718   6.97309  34.62923  1       31
siesta:     46.96901   6.97309  34.62923  1       32
siesta:     55.02084   6.97309  34.62923  1       33
siesta:     63.07267   6.97309  34.62923  1       34
siesta:     71.12450   6.97309  34.62923  1       35
siesta:     10.73577   9.29745  34.62923  1       36
siesta:     18.78760   9.29745  34.62923  1       37
siesta:     26.83943   9.29745  34.62923  1       38
siesta:     34.89126   9.29745  34.62923  1       39
siesta:     42.94309   9.29745  34.62923  1       40
siesta:     50.99492   9.29745  34.62923  1       41
siesta:     59.04675   9.29745  34.62923  1       42
siesta:     67.09858   9.29745  34.62923  1       43
siesta:     75.15041   9.29745  34.62923  1       44
siesta:     14.76169  11.62182  34.62923  1       45
siesta:     22.81352  11.62182  34.62923  1       46
siesta:     30.86535  11.62182  34.62923  1       47
siesta:     38.91718  11.62182  34.62923  1       48
siesta:     46.96901  11.62182  34.62923  1       49
siesta:     55.02084  11.62182  34.62923  1       50
siesta:     63.07267  11.62182  34.62923  1       51
siesta:     71.12450  11.62182  34.62923  1       52
siesta:     10.73577  13.94618  34.62923  1       53
siesta:     18.78760  13.94618  34.62923  1       54
siesta:     26.83943  13.94618  34.62923  1       55
siesta:     34.89126  13.94618  34.62923  1       56
siesta:     42.94309  13.94618  34.62923  1       57
siesta:     50.99492  13.94618  34.62923  1       58
siesta:     59.04675  13.94618  34.62923  1       59
siesta:     67.09858  13.94618  34.62923  1       60
siesta:     75.15041  13.94618  34.62923  1       61
siesta:     14.76169  16.27054  34.62923  1       62
siesta:     22.81352  16.27054  34.62923  1       63
siesta:     30.86535  16.27054  34.62923  1       64
siesta:     38.91718  16.27054  34.62923  1       65
siesta:     46.96901  16.27054  34.62923  1       66
siesta:     55.02084  16.27054  34.62923  1       67
siesta:     63.07267  16.27054  34.62923  1       68
siesta:     71.12450  16.27054  34.62923  1       69
siesta:     79.17633  16.27054  34.62923  1       70
siesta:     18.78760  18.59491  34.62923  1       71
siesta:     26.83943  18.59491  34.62923  1       72
siesta:     34.89126  18.59491  34.62923  1       73
siesta:     42.94309  18.59491  34.62923  1       74
siesta:     50.99492  18.59491  34.62923  1       75
siesta:     59.04675  18.59491  34.62923  1       76
siesta:     67.09858  18.59491  34.62923  1       77
siesta:     75.15041  18.59491  34.62923  1       78
siesta:     14.76169  20.91927  34.62923  1       79
siesta:     22.81352  20.91927  34.62923  1       80
siesta:     30.86535  20.91927  34.62923  1       81
siesta:     38.91718  20.91927  34.62923  1       82
siesta:     46.96901  20.91927  34.62923  1       83
siesta:     55.02084  20.91927  34.62923  1       84
siesta:     63.07267  20.91927  34.62923  1       85
siesta:     71.12450  20.91927  34.62923  1       86
siesta:     79.17633  20.91927  34.62923  1       87
siesta:     18.78760  23.24363  34.62923  1       88
siesta:     26.83943  23.24363  34.62923  1       89
siesta:     34.89126  23.24363  34.62923  1       90
siesta:     42.94309  23.24363  34.62923  1       91
siesta:     50.99492  23.24363  34.62923  1       92
siesta:     59.04675  23.24363  34.62923  1       93
siesta:     67.09858  23.24363  34.62923  1       94
siesta:     75.15041  23.24363  34.62923  1       95
siesta:     83.20224  23.24363  34.62923  1       96
siesta:     22.81352  25.56799  34.62923  1       97
siesta:     30.86535  25.56799  34.62923  1       98
siesta:     38.91718  25.56799  34.62923  1       99
siesta:     46.96901  25.56799  34.62923  1      100
siesta:     55.02084  25.56799  34.62923  1      101
siesta:     63.07267  25.56799  34.62923  1      102
siesta:     71.12450  25.56799  34.62923  1      103
siesta:     79.17633  25.56799  34.62923  1      104
siesta:     18.78760  27.89236  34.62923  1      105
siesta:     26.83943  27.89236  34.62923  1      106
siesta:     34.89126  27.89236  34.62923  1      107
siesta:     42.94309  27.89236  34.62923  1      108
siesta:     50.99492  27.89236  34.62923  1      109
siesta:     59.04675  27.89236  34.62923  1      110
siesta:     67.09858  27.89236  34.62923  1      111
siesta:     75.15041  27.89236  34.62923  1      112
siesta:     83.20224  27.89236  34.62923  1      113
siesta:     22.81352  30.21672  34.62923  1      114
siesta:     30.86535  30.21672  34.62923  1      115
siesta:     38.91718  30.21672  34.62923  1      116
siesta:     46.96901  30.21672  34.62923  1      117
siesta:     55.02084  30.21672  34.62923  1      118
siesta:     63.07267  30.21672  34.62923  1      119
siesta:     71.12450  30.21672  34.62923  1      120
siesta:     79.17633  30.21672  34.62923  1      121
siesta:     87.22816  30.21672  34.62923  1      122
siesta:     26.83943  32.54108  34.62923  1      123
siesta:     34.89126  32.54108  34.62923  1      124
siesta:     42.94309  32.54108  34.62923  1      125
siesta:     50.99492  32.54108  34.62923  1      126
siesta:     59.04675  32.54108  34.62923  1      127
siesta:     67.09858  32.54108  34.62923  1      128
siesta:     75.15041  32.54108  34.62923  1      129
siesta:     83.20224  32.54108  34.62923  1      130
siesta:     22.81352  34.86545  34.62923  1      131
siesta:     30.86535  34.86545  34.62923  1      132
siesta:     38.91718  34.86545  34.62923  1      133
siesta:     46.96901  34.86545  34.62923  1      134
siesta:     55.02084  34.86545  34.62923  1      135
siesta:     63.07267  34.86545  34.62923  1      136
siesta:     71.12450  34.86545  34.62923  1      137
siesta:     79.17633  34.86545  34.62923  1      138
siesta:     87.22816  34.86545  34.62923  1      139
siesta:     26.83943  37.18981  34.62923  1      140
siesta:     34.89126  37.18981  34.62923  1      141
siesta:     42.94309  37.18981  34.62923  1      142
siesta:     50.99492  37.18981  34.62923  1      143
siesta:     59.04675  37.18981  34.62923  1      144
siesta:     67.09858  37.18981  34.62923  1      145
siesta:     75.15041  37.18981  34.62923  1      146
siesta:     83.20224  37.18981  34.62923  1      147
siesta:     91.25407  37.18981  34.62923  1      148
siesta:     30.86535  39.51417  34.62923  1      149
siesta:     38.91718  39.51417  34.62923  1      150
siesta:     46.96901  39.51417  34.62923  1      151
siesta:     55.02084  39.51417  34.62923  1      152
siesta:     63.07267  39.51417  34.62923  1      153
siesta:     71.12450  39.51417  34.62923  1      154
siesta:     79.17633  39.51417  34.62923  1      155
siesta:     87.22816  39.51417  34.62923  1      156
siesta:     26.83943  41.83854  34.62923  1      157
siesta:     34.89126  41.83854  34.62923  1      158
siesta:     42.94309  41.83854  34.62923  1      159
siesta:     50.99492  41.83854  34.62923  1      160
siesta:     59.04675  41.83854  34.62923  1      161
siesta:     67.09858  41.83854  34.62923  1      162
siesta:     75.15041  41.83854  34.62923  1      163
siesta:     83.20224  41.83854  34.62923  1      164
siesta:     91.25407  41.83854  34.62923  1      165
siesta:     30.86535  44.16290  34.62923  1      166
siesta:     38.91718  44.16290  34.62923  1      167
siesta:     46.96901  44.16290  34.62923  1      168
siesta:     55.02084  44.16290  34.62923  1      169
siesta:     63.07267  44.16290  34.62923  1      170
siesta:     71.12450  44.16290  34.62923  1      171
siesta:     79.17633  44.16290  34.62923  1      172
siesta:     87.22816  44.16290  34.62923  1      173
siesta:     95.27999  44.16290  34.62923  1      174
siesta:     34.89126  46.48726  34.62923  1      175
siesta:     42.94309  46.48726  34.62923  1      176
siesta:     50.99492  46.48726  34.62923  1      177
siesta:     59.04675  46.48726  34.62923  1      178
siesta:     67.09858  46.48726  34.62923  1      179
siesta:     75.15041  46.48726  34.62923  1      180
siesta:     83.20224  46.48726  34.62923  1      181
siesta:     91.25407  46.48726  34.62923  1      182
siesta:     30.86535  48.81163  34.62923  1      183
siesta:     38.91718  48.81163  34.62923  1      184
siesta:     46.96901  48.81163  34.62923  1      185
siesta:     55.02084  48.81163  34.62923  1      186
siesta:     63.07267  48.81163  34.62923  1      187
siesta:     71.12450  48.81163  34.62923  1      188
siesta:     79.17633  48.81163  34.62923  1      189
siesta:     87.22816  48.81163  34.62923  1      190
siesta:     95.27999  48.81163  34.62923  1      191
siesta:     34.89126  51.13599  34.62923  1      192
siesta:     42.94309  51.13599  34.62923  1      193
siesta:     50.99492  51.13599  34.62923  1      194
siesta:     59.04675  51.13599  34.62923  1      195
siesta:     67.09858  51.13599  34.62923  1      196
siesta:     75.15041  51.13599  34.62923  1      197
siesta:     83.20224  51.13599  34.62923  1      198
siesta:     91.25407  51.13599  34.62923  1      199
siesta:     99.30590  51.13599  34.62923  1      200
siesta:     38.91718  53.46035  34.62923  1      201
siesta:     46.96901  53.46035  34.62923  1      202
siesta:     55.02084  53.46035  34.62923  1      203
siesta:     63.07267  53.46035  34.62923  1      204
siesta:     71.12450  53.46035  34.62923  1      205
siesta:     79.17633  53.46035  34.62923  1      206
siesta:     87.22816  53.46035  34.62923  1      207
siesta:     95.27999  53.46035  34.62923  1      208
siesta:     34.89126  55.78472  34.62923  1      209
siesta:     42.94309  55.78472  34.62923  1      210
siesta:     50.99492  55.78472  34.62923  1      211
siesta:     59.04675  55.78472  34.62923  1      212
siesta:     67.09858  55.78472  34.62923  1      213
siesta:     75.15041  55.78472  34.62923  1      214
siesta:     83.20224  55.78472  34.62923  1      215
siesta:     91.25407  55.78472  34.62923  1      216
siesta:     99.30590  55.78472  34.62923  1      217
siesta:      5.36789   0.00000  34.62923  1      218
siesta:     13.41972   0.00000  34.62923  1      219
siesta:     21.47155   0.00000  34.62923  1      220
siesta:     29.52338   0.00000  34.62923  1      221
siesta:     37.57521   0.00000  34.62923  1      222
siesta:     45.62704   0.00000  34.62923  1      223
siesta:     53.67887   0.00000  34.62923  1      224
siesta:     61.73070   0.00000  34.62923  1      225
siesta:     69.78253   0.00000  34.62923  1      226
siesta:      9.39380   2.32436  34.62923  1      227
siesta:     17.44563   2.32436  34.62923  1      228
siesta:     25.49746   2.32436  34.62923  1      229
siesta:     33.54929   2.32436  34.62923  1      230
siesta:     41.60112   2.32436  34.62923  1      231
siesta:     49.65295   2.32436  34.62923  1      232
siesta:     57.70478   2.32436  34.62923  1      233
siesta:     65.75661   2.32436  34.62923  1      234
siesta:      5.36789   4.64873  34.62923  1      235
siesta:     13.41972   4.64873  34.62923  1      236
siesta:     21.47155   4.64873  34.62923  1      237
siesta:     29.52338   4.64873  34.62923  1      238
siesta:     37.57521   4.64873  34.62923  1      239
siesta:     45.62704   4.64873  34.62923  1      240
siesta:     53.67887   4.64873  34.62923  1      241
siesta:     61.73070   4.64873  34.62923  1      242
siesta:     69.78253   4.64873  34.62923  1      243
siesta:      9.39380   6.97309  34.62923  1      244
siesta:     17.44563   6.97309  34.62923  1      245
siesta:     25.49746   6.97309  34.62923  1      246
siesta:     33.54929   6.97309  34.62923  1      247
siesta:     41.60112   6.97309  34.62923  1      248
siesta:     49.65295   6.97309  34.62923  1      249
siesta:     57.70478   6.97309  34.62923  1      250
siesta:     65.75661   6.97309  34.62923  1      251
siesta:     73.80844   6.97309  34.62923  1      252
siesta:     13.41972   9.29745  34.62923  1      253
siesta:     21.47155   9.29745  34.62923  1      254
siesta:     29.52338   9.29745  34.62923  1      255
siesta:     37.57521   9.29745  34.62923  1      256
siesta:     45.62704   9.29745  34.62923  1      257
siesta:     53.67887   9.29745  34.62923  1      258
siesta:     61.73070   9.29745  34.62923  1      259
siesta:     69.78253   9.29745  34.62923  1      260
siesta:      9.39380  11.62182  34.62923  1      261
siesta:     17.44563  11.62182  34.62923  1      262
siesta:     25.49746  11.62182  34.62923  1      263
siesta:     33.54929  11.62182  34.62923  1      264
siesta:     41.60112  11.62182  34.62923  1      265
siesta:     49.65295  11.62182  34.62923  1      266
siesta:     57.70478  11.62182  34.62923  1      267
siesta:     65.75661  11.62182  34.62923  1      268
siesta:     73.80844  11.62182  34.62923  1      269
siesta:     13.41972  13.94618  34.62923  1      270
siesta:     21.47155  13.94618  34.62923  1      271
siesta:     29.52338  13.94618  34.62923  1      272
siesta:     37.57521  13.94618  34.62923  1      273
siesta:     45.62704  13.94618  34.62923  1      274
siesta:     53.67887  13.94618  34.62923  1      275
siesta:     61.73070  13.94618  34.62923  1      276
siesta:     69.78253  13.94618  34.62923  1      277
siesta:     77.83436  13.94618  34.62923  1      278
siesta:     17.44563  16.27054  34.62923  1      279
siesta:     25.49746  16.27054  34.62923  1      280
siesta:     33.54929  16.27054  34.62923  1      281
siesta:     41.60112  16.27054  34.62923  1      282
siesta:     49.65295  16.27054  34.62923  1      283
siesta:     57.70478  16.27054  34.62923  1      284
siesta:     65.75661  16.27054  34.62923  1      285
siesta:     73.80844  16.27054  34.62923  1      286
siesta:     13.41972  18.59491  34.62923  1      287
siesta:     21.47155  18.59491  34.62923  1      288
siesta:     29.52338  18.59491  34.62923  1      289
siesta:     37.57521  18.59491  34.62923  1      290
siesta:     45.62704  18.59491  34.62923  1      291
siesta:     53.67887  18.59491  34.62923  1      292
siesta:     61.73070  18.59491  34.62923  1      293
siesta:     69.78253  18.59491  34.62923  1      294
siesta:     77.83436  18.59491  34.62923  1      295
siesta:     17.44563  20.91927  34.62923  1      296
siesta:     25.49746  20.91927  34.62923  1      297
siesta:     33.54929  20.91927  34.62923  1      298
siesta:     41.60112  20.91927  34.62923  1      299
siesta:     49.65295  20.91927  34.62923  1      300
siesta:     57.70478  20.91927  34.62923  1      301
siesta:     65.75661  20.91927  34.62923  1      302
siesta:     73.80844  20.91927  34.62923  1      303
siesta:     81.86027  20.91927  34.62923  1      304
siesta:     21.47155  23.24363  34.62923  1      305
siesta:     29.52338  23.24363  34.62923  1      306
siesta:     37.57521  23.24363  34.62923  1      307
siesta:     45.62704  23.24363  34.62923  1      308
siesta:     53.67887  23.24363  34.62923  1      309
siesta:     61.73070  23.24363  34.62923  1      310
siesta:     69.78253  23.24363  34.62923  1      311
siesta:     77.83436  23.24363  34.62923  1      312
siesta:     17.44563  25.56799  34.62923  1      313
siesta:     25.49746  25.56799  34.62923  1      314
siesta:     33.54929  25.56799  34.62923  1      315
siesta:     41.60112  25.56799  34.62923  1      316
siesta:     49.65295  25.56799  34.62923  1      317
siesta:     57.70478  25.56799  34.62923  1      318
siesta:     65.75661  25.56799  34.62923  1      319
siesta:     73.80844  25.56799  34.62923  1      320
siesta:     81.86027  25.56799  34.62923  1      321
siesta:     21.47155  27.89236  34.62923  1      322
siesta:     29.52338  27.89236  34.62923  1      323
siesta:     37.57521  27.89236  34.62923  1      324
siesta:     45.62704  27.89236  34.62923  1      325
siesta:     53.67887  27.89236  34.62923  1      326
siesta:     61.73070  27.89236  34.62923  1      327
siesta:     69.78253  27.89236  34.62923  1      328
siesta:     77.83436  27.89236  34.62923  1      329
siesta:     85.88619  27.89236  34.62923  1      330
siesta:     25.49746  30.21672  34.62923  1      331
siesta:     33.54929  30.21672  34.62923  1      332
siesta:     41.60112  30.21672  34.62923  1      333
siesta:     49.65295  30.21672  34.62923  1      334
siesta:     57.70478  30.21672  34.62923  1      335
siesta:     65.75661  30.21672  34.62923  1      336
siesta:     73.80844  30.21672  34.62923  1      337
siesta:     81.86027  30.21672  34.62923  1      338
siesta:     21.47155  32.54108  34.62923  1      339
siesta:     29.52338  32.54108  34.62923  1      340
siesta:     37.57521  32.54108  34.62923  1      341
siesta:     45.62704  32.54108  34.62923  1      342
siesta:     53.67887  32.54108  34.62923  1      343
siesta:     61.73070  32.54108  34.62923  1      344
siesta:     69.78253  32.54108  34.62923  1      345
siesta:     77.83436  32.54108  34.62923  1      346
siesta:     85.88619  32.54108  34.62923  1      347
siesta:     25.49746  34.86545  34.62923  1      348
siesta:     33.54929  34.86545  34.62923  1      349
siesta:     41.60112  34.86545  34.62923  1      350
siesta:     49.65295  34.86545  34.62923  1      351
siesta:     57.70478  34.86545  34.62923  1      352
siesta:     65.75661  34.86545  34.62923  1      353
siesta:     73.80844  34.86545  34.62923  1      354
siesta:     81.86027  34.86545  34.62923  1      355
siesta:     89.91210  34.86545  34.62923  1      356
siesta:     29.52338  37.18981  34.62923  1      357
siesta:     37.57521  37.18981  34.62923  1      358
siesta:     45.62704  37.18981  34.62923  1      359
siesta:     53.67887  37.18981  34.62923  1      360
siesta:     61.73070  37.18981  34.62923  1      361
siesta:     69.78253  37.18981  34.62923  1      362
siesta:     77.83436  37.18981  34.62923  1      363
siesta:     85.88619  37.18981  34.62923  1      364
siesta:     25.49746  39.51417  34.62923  1      365
siesta:     33.54929  39.51417  34.62923  1      366
siesta:     41.60112  39.51417  34.62923  1      367
siesta:     49.65295  39.51417  34.62923  1      368
siesta:     57.70478  39.51417  34.62923  1      369
siesta:     65.75661  39.51417  34.62923  1      370
siesta:     73.80844  39.51417  34.62923  1      371
siesta:     81.86027  39.51417  34.62923  1      372
siesta:     89.91210  39.51417  34.62923  1      373
siesta:     29.52338  41.83854  34.62923  1      374
siesta:     37.57521  41.83854  34.62923  1      375
siesta:     45.62704  41.83854  34.62923  1      376
siesta:     53.67887  41.83854  34.62923  1      377
siesta:     61.73070  41.83854  34.62923  1      378
siesta:     69.78253  41.83854  34.62923  1      379
siesta:     77.83436  41.83854  34.62923  1      380
siesta:     85.88619  41.83854  34.62923  1      381
siesta:     93.93802  41.83854  34.62923  1      382
siesta:     33.54929  44.16290  34.62923  1      383
siesta:     41.60112  44.16290  34.62923  1      384
siesta:     49.65295  44.16290  34.62923  1      385
siesta:     57.70478  44.16290  34.62923  1      386
siesta:     65.75661  44.16290  34.62923  1      387
siesta:     73.80844  44.16290  34.62923  1      388
siesta:     81.86027  44.16290  34.62923  1      389
siesta:     89.91210  44.16290  34.62923  1      390
siesta:     29.52338  46.48726  34.62923  1      391
siesta:     37.57521  46.48726  34.62923  1      392
siesta:     45.62704  46.48726  34.62923  1      393
siesta:     53.67887  46.48726  34.62923  1      394
siesta:     61.73070  46.48726  34.62923  1      395
siesta:     69.78253  46.48726  34.62923  1      396
siesta:     77.83436  46.48726  34.62923  1      397
siesta:     85.88619  46.48726  34.62923  1      398
siesta:     93.93802  46.48726  34.62923  1      399
siesta:     33.54929  48.81163  34.62923  1      400
siesta:     41.60112  48.81163  34.62923  1      401
siesta:     49.65295  48.81163  34.62923  1      402
siesta:     57.70478  48.81163  34.62923  1      403
siesta:     65.75661  48.81163  34.62923  1      404
siesta:     73.80844  48.81163  34.62923  1      405
siesta:     81.86027  48.81163  34.62923  1      406
siesta:     89.91210  48.81163  34.62923  1      407
siesta:     97.96393  48.81163  34.62923  1      408
siesta:     37.57521  51.13599  34.62923  1      409
siesta:     45.62704  51.13599  34.62923  1      410
siesta:     53.67887  51.13599  34.62923  1      411
siesta:     61.73070  51.13599  34.62923  1      412
siesta:     69.78253  51.13599  34.62923  1      413
siesta:     77.83436  51.13599  34.62923  1      414
siesta:     85.88619  51.13599  34.62923  1      415
siesta:     93.93802  51.13599  34.62923  1      416
siesta:     33.54929  53.46035  34.62923  1      417
siesta:     41.60112  53.46035  34.62923  1      418
siesta:     49.65295  53.46035  34.62923  1      419
siesta:     57.70478  53.46035  34.62923  1      420
siesta:     65.75661  53.46035  34.62923  1      421
siesta:     73.80844  53.46035  34.62923  1      422
siesta:     81.86027  53.46035  34.62923  1      423
siesta:     89.91210  53.46035  34.62923  1      424
siesta:     97.96393  53.46035  34.62923  1      425
siesta:     37.57521  55.78472  34.62923  1      426
siesta:     45.62704  55.78472  34.62923  1      427
siesta:     53.67887  55.78472  34.62923  1      428
siesta:     61.73070  55.78472  34.62923  1      429
siesta:     69.78253  55.78472  34.62923  1      430
siesta:     77.83436  55.78472  34.62923  1      431
siesta:     85.88619  55.78472  34.62923  1      432
siesta:     93.93802  55.78472  34.62923  1      433
siesta:    101.98985  55.78472  34.62923  1      434
siesta:      6.85210   1.86378  40.95981  1      435
siesta:     14.88537   1.31750  40.95981  1      436
siesta:     22.91865   0.77122  40.95981  1      437
siesta:     30.95193   0.22494  40.95981  1      438
siesta:     38.98520  -0.32134  40.95981  1      439
siesta:     47.01848  -0.86762  40.95981  1      440
siesta:     55.05176  -1.41390  40.95981  1      441
siesta:     63.08504  -1.96018  40.95981  1      442
siesta:      2.99315   4.45592  40.95981  1      443
siesta:     11.02643   3.90964  40.95981  1      444
siesta:     19.05971   3.36336  40.95981  1      445
siesta:     27.09299   2.81709  40.95981  1      446
siesta:     35.12626   2.27081  40.95981  1      447
siesta:     43.15954   1.72453  40.95981  1      448
siesta:     51.19282   1.17825  40.95981  1      449
siesta:     59.22610   0.63197  40.95981  1      450
siesta:     67.25937   0.08569  40.95981  1      451
siesta:      7.16749   6.50179  40.95981  1      452
siesta:     15.20077   5.95551  40.95981  1      453
siesta:     23.23404   5.40923  40.95981  1      454
siesta:     31.26732   4.86295  40.95981  1      455
siesta:     39.30060   4.31667  40.95981  1      456
siesta:     47.33388   3.77040  40.95981  1      457
siesta:     55.36715   3.22412  40.95981  1      458
siesta:     63.40043   2.67784  40.95981  1      459
siesta:     11.34183   8.54766  40.95981  1      460
siesta:     19.37510   8.00138  40.95981  1      461
siesta:     27.40838   7.45510  40.95981  1      462
siesta:     35.44166   6.90882  40.95981  1      463
siesta:     43.47494   6.36254  40.95981  1      464
siesta:     51.50821   5.81626  40.95981  1      465
siesta:     59.54149   5.26998  40.95981  1      466
siesta:     67.57477   4.72371  40.95981  1      467
siesta:      7.48288  11.13980  40.95981  1      468
siesta:     15.51616  10.59353  40.95981  1      469
siesta:     23.54944  10.04725  40.95981  1      470
siesta:     31.58272   9.50097  40.95981  1      471
siesta:     39.61599   8.95469  40.95981  1      472
siesta:     47.64927   8.40841  40.95981  1      473
siesta:     55.68255   7.86213  40.95981  1      474
siesta:     63.71583   7.31585  40.95981  1      475
siesta:     71.74910   6.76957  40.95981  1      476
siesta:     11.65722  13.18567  40.95981  1      477
siesta:     19.69050  12.63939  40.95981  1      478
siesta:     27.72377  12.09312  40.95981  1      479
siesta:     35.75705  11.54684  40.95981  1      480
siesta:     43.79033  11.00056  40.95981  1      481
siesta:     51.82361  10.45428  40.95981  1      482
siesta:     59.85688   9.90800  40.95981  1      483
siesta:     67.89016   9.36172  40.95981  1      484
siesta:     15.83156  15.23154  40.95981  1      485
siesta:     23.86483  14.68526  40.95981  1      486
siesta:     31.89811  14.13898  40.95981  1      487
siesta:     39.93139  13.59270  40.95981  1      488
siesta:     47.96467  13.04643  40.95981  1      489
siesta:     55.99794  12.50015  40.95981  1      490
siesta:     64.03122  11.95387  40.95981  1      491
siesta:     72.06450  11.40759  40.95981  1      492
siesta:     11.97261  17.82369  40.95981  1      493
siesta:     20.00589  17.27741  40.95981  1      494
siesta:     28.03917  16.73113  40.95981  1      495
siesta:     36.07245  16.18485  40.95981  1      496
siesta:     44.10572  15.63857  40.95981  1      497
siesta:     52.13900  15.09229  40.95981  1      498
siesta:     60.17228  14.54601  40.95981  1      499
siesta:     68.20556  13.99974  40.95981  1      500
siesta:     76.23883  13.45346  40.95981  1      501
siesta:     16.14695  19.86956  40.95981  1      502
siesta:     24.18023  19.32328  40.95981  1      503
siesta:     32.21350  18.77700  40.95981  1      504
siesta:     40.24678  18.23072  40.95981  1      505
siesta:     48.28006  17.68444  40.95981  1      506
siesta:     56.31334  17.13816  40.95981  1      507
siesta:     64.34661  16.59188  40.95981  1      508
siesta:     72.37989  16.04560  40.95981  1      509
siesta:     20.32129  21.91542  40.95981  1      510
siesta:     28.35456  21.36914  40.95981  1      511
siesta:     36.38784  20.82287  40.95981  1      512
siesta:     44.42112  20.27659  40.95981  1      513
siesta:     52.45440  19.73031  40.95981  1      514
siesta:     60.48767  19.18403  40.95981  1      515
siesta:     68.52095  18.63775  40.95981  1      516
siesta:     76.55423  18.09147  40.95981  1      517
siesta:     16.46234  24.50757  40.95981  1      518
siesta:     24.49562  23.96129  40.95981  1      519
siesta:     32.52890  23.41501  40.95981  1      520
siesta:     40.56218  22.86873  40.95981  1      521
siesta:     48.59545  22.32246  40.95981  1      522
siesta:     56.62873  21.77618  40.95981  1      523
siesta:     64.66201  21.22990  40.95981  1      524
siesta:     72.69529  20.68362  40.95981  1      525
siesta:     80.72856  20.13734  40.95981  1      526
siesta:     20.63668  26.55344  40.95981  1      527
siesta:     28.66996  26.00716  40.95981  1      528
siesta:     36.70323  25.46088  40.95981  1      529
siesta:     44.73651  24.91460  40.95981  1      530
siesta:     52.76979  24.36832  40.95981  1      531
siesta:     60.80307  23.82204  40.95981  1      532
siesta:     68.83634  23.27577  40.95981  1      533
siesta:     76.86962  22.72949  40.95981  1      534
siesta:     24.81102  28.59931  40.95981  1      535
siesta:     32.84429  28.05303  40.95981  1      536
siesta:     40.87757  27.50675  40.95981  1      537
siesta:     48.91085  26.96047  40.95981  1      538
siesta:     56.94413  26.41419  40.95981  1      539
siesta:     64.97740  25.86791  40.95981  1      540
siesta:     73.01068  25.32163  40.95981  1      541
siesta:     81.04396  24.77535  40.95981  1      542
siesta:     20.95207  31.19145  40.95981  1      543
siesta:     28.98535  30.64517  40.95981  1      544
siesta:     37.01863  30.09890  40.95981  1      545
siesta:     45.05191  29.55262  40.95981  1      546
siesta:     53.08518  29.00634  40.95981  1      547
siesta:     61.11846  28.46006  40.95981  1      548
siesta:     69.15174  27.91378  40.95981  1      549
siesta:     77.18502  27.36750  40.95981  1      550
siesta:     85.21829  26.82122  40.95981  1      551
siesta:     25.12641  33.23732  40.95981  1      552
siesta:     33.15969  32.69104  40.95981  1      553
siesta:     41.19296  32.14476  40.95981  1      554
siesta:     49.22624  31.59848  40.95981  1      555
siesta:     57.25952  31.05221  40.95981  1      556
siesta:     65.29280  30.50593  40.95981  1      557
siesta:     73.32607  29.95965  40.95981  1      558
siesta:     81.35935  29.41337  40.95981  1      559
siesta:     29.30075  35.28319  40.95981  1      560
siesta:     37.33402  34.73691  40.95981  1      561
siesta:     45.36730  34.19063  40.95981  1      562
siesta:     53.40058  33.64435  40.95981  1      563
siesta:     61.43386  33.09807  40.95981  1      564
siesta:     69.46713  32.55180  40.95981  1      565
siesta:     77.50041  32.00552  40.95981  1      566
siesta:     85.53369  31.45924  40.95981  1      567
siesta:     25.44180  37.87534  40.95981  1      568
siesta:     33.47508  37.32906  40.95981  1      569
siesta:     41.50836  36.78278  40.95981  1      570
siesta:     49.54164  36.23650  40.95981  1      571
siesta:     57.57491  35.69022  40.95981  1      572
siesta:     65.60819  35.14394  40.95981  1      573
siesta:     73.64147  34.59766  40.95981  1      574
siesta:     81.67475  34.05138  40.95981  1      575
siesta:     89.70802  33.50511  40.95981  1      576
siesta:     29.61614  39.92120  40.95981  1      577
siesta:     37.64942  39.37493  40.95981  1      578
siesta:     45.68269  38.82865  40.95981  1      579
siesta:     53.71597  38.28237  40.95981  1      580
siesta:     61.74925  37.73609  40.95981  1      581
siesta:     69.78253  37.18981  40.95981  1      582
siesta:     77.81580  36.64353  40.95981  1      583
siesta:     85.84908  36.09725  40.95981  1      584
siesta:     33.79048  41.96707  40.95981  1      585
siesta:     41.82375  41.42079  40.95981  1      586
siesta:     49.85703  40.87451  40.95981  1      587
siesta:     57.89031  40.32824  40.95981  1      588
siesta:     65.92359  39.78196  40.95981  1      589
siesta:     73.95686  39.23568  40.95981  1      590
siesta:     81.99014  38.68940  40.95981  1      591
siesta:     90.02342  38.14312  40.95981  1      592
siesta:     29.93153  44.55922  40.95981  1      593
siesta:     37.96481  44.01294  40.95981  1      594
siesta:     45.99809  43.46666  40.95981  1      595
siesta:     54.03137  42.92038  40.95981  1      596
siesta:     62.06464  42.37410  40.95981  1      597
siesta:     70.09792  41.82783  40.95981  1      598
siesta:     78.13120  41.28155  40.95981  1      599
siesta:     86.16448  40.73527  40.95981  1      600
siesta:     94.19775  40.18899  40.95981  1      601
siesta:     34.10587  46.60509  40.95981  1      602
siesta:     42.13915  46.05881  40.95981  1      603
siesta:     50.17243  45.51253  40.95981  1      604
siesta:     58.20570  44.96625  40.95981  1      605
siesta:     66.23898  44.41997  40.95981  1      606
siesta:     74.27226  43.87369  40.95981  1      607
siesta:     82.30554  43.32741  40.95981  1      608
siesta:     90.33881  42.78114  40.95981  1      609
siesta:     38.28021  48.65096  40.95981  1      610
siesta:     46.31348  48.10468  40.95981  1      611
siesta:     54.34676  47.55840  40.95981  1      612
siesta:     62.38004  47.01212  40.95981  1      613
siesta:     70.41332  46.46584  40.95981  1      614
siesta:     78.44659  45.91956  40.95981  1      615
siesta:     86.47987  45.37328  40.95981  1      616
siesta:     94.51315  44.82700  40.95981  1      617
siesta:     34.42126  51.24310  40.95981  1      618
siesta:     42.45454  50.69682  40.95981  1      619
siesta:     50.48782  50.15054  40.95981  1      620
siesta:     58.52110  49.60427  40.95981  1      621
siesta:     66.55437  49.05799  40.95981  1      622
siesta:     74.58765  48.51171  40.95981  1      623
siesta:     82.62093  47.96543  40.95981  1      624
siesta:     90.65421  47.41915  40.95981  1      625
siesta:     98.68748  46.87287  40.95981  1      626
siesta:     38.59560  53.28897  40.95981  1      627
siesta:     46.62888  52.74269  40.95981  1      628
siesta:     54.66216  52.19641  40.95981  1      629
siesta:     62.69543  51.65013  40.95981  1      630
siesta:     70.72871  51.10385  40.95981  1      631
siesta:     78.76199  50.55758  40.95981  1      632
siesta:     86.79527  50.01130  40.95981  1      633
siesta:     94.82854  49.46502  40.95981  1      634
siesta:     42.76994  55.33484  40.95981  1      635
siesta:     50.80321  54.78856  40.95981  1      636
siesta:     58.83649  54.24228  40.95981  1      637
siesta:     66.86977  53.69600  40.95981  1      638
siesta:     74.90305  53.14972  40.95981  1      639
siesta:     82.93632  52.60344  40.95981  1      640
siesta:     90.96960  52.05717  40.95981  1      641
siesta:     99.00288  51.51089  40.95981  1      642
siesta:     38.91099  57.92699  40.95981  1      643
siesta:     46.94427  57.38071  40.95981  1      644
siesta:     54.97755  56.83443  40.95981  1      645
siesta:     63.01083  56.28815  40.95981  1      646
siesta:     71.04410  55.74187  40.95981  1      647
siesta:     79.07738  55.19559  40.95981  1      648
siesta:     87.11066  54.64931  40.95981  1      649
siesta:     95.14394  54.10303  40.95981  1      650
siesta:    103.17721  53.55675  40.95981  1      651
siesta:      1.49658   2.22796  40.95981  1      652
siesta:      9.52985   1.68168  40.95981  1      653
siesta:     17.56313   1.13540  40.95981  1      654
siesta:     25.59641   0.58912  40.95981  1      655
siesta:     33.62969   0.04285  40.95981  1      656
siesta:     41.66296  -0.50343  40.95981  1      657
siesta:     49.69624  -1.04971  40.95981  1      658
siesta:     57.72952  -1.59599  40.95981  1      659
siesta:     65.76280  -2.14227  40.95981  1      660
siesta:      5.67091   4.27383  40.95981  1      661
siesta:     13.70419   3.72755  40.95981  1      662
siesta:     21.73747   3.18127  40.95981  1      663
siesta:     29.77075   2.63499  40.95981  1      664
siesta:     37.80402   2.08871  40.95981  1      665
siesta:     45.83730   1.54243  40.95981  1      666
siesta:     53.87058   0.99616  40.95981  1      667
siesta:     61.90385   0.44988  40.95981  1      668
siesta:      9.84525   6.31970  40.95981  1      669
siesta:     17.87853   5.77342  40.95981  1      670
siesta:     25.91180   5.22714  40.95981  1      671
siesta:     33.94508   4.68086  40.95981  1      672
siesta:     41.97836   4.13458  40.95981  1      673
siesta:     50.01164   3.58830  40.95981  1      674
siesta:     58.04491   3.04202  40.95981  1      675
siesta:     66.07819   2.49574  40.95981  1      676
siesta:      5.98631   8.91184  40.95981  1      677
siesta:     14.01958   8.36557  40.95981  1      678
siesta:     22.05286   7.81929  40.95981  1      679
siesta:     30.08614   7.27301  40.95981  1      680
siesta:     38.11942   6.72673  40.95981  1      681
siesta:     46.15269   6.18045  40.95981  1      682
siesta:     54.18597   5.63417  40.95981  1      683
siesta:     62.21925   5.08789  40.95981  1      684
siesta:     70.25253   4.54161  40.95981  1      685
siesta:     10.16064  10.95771  40.95981  1      686
siesta:     18.19392  10.41143  40.95981  1      687
siesta:     26.22720   9.86515  40.95981  1      688
siesta:     34.26048   9.31888  40.95981  1      689
siesta:     42.29375   8.77260  40.95981  1      690
siesta:     50.32703   8.22632  40.95981  1      691
siesta:     58.36031   7.68004  40.95981  1      692
siesta:     66.39359   7.13376  40.95981  1      693
siesta:     14.33498  13.00358  40.95981  1      694
siesta:     22.36826  12.45730  40.95981  1      695
siesta:     30.40153  11.91102  40.95981  1      696
siesta:     38.43481  11.36474  40.95981  1      697
siesta:     46.46809  10.81846  40.95981  1      698
siesta:     54.50137  10.27219  40.95981  1      699
siesta:     62.53464   9.72591  40.95981  1      700
siesta:     70.56792   9.17963  40.95981  1      701
siesta:     10.47604  15.59573  40.95981  1      702
siesta:     18.50931  15.04945  40.95981  1      703
siesta:     26.54259  14.50317  40.95981  1      704
siesta:     34.57587  13.95689  40.95981  1      705
siesta:     42.60915  13.41061  40.95981  1      706
siesta:     50.64242  12.86433  40.95981  1      707
siesta:     58.67570  12.31805  40.95981  1      708
siesta:     66.70898  11.77177  40.95981  1      709
siesta:     74.74226  11.22550  40.95981  1      710
siesta:     14.65037  17.64159  40.95981  1      711
siesta:     22.68365  17.09532  40.95981  1      712
siesta:     30.71693  16.54904  40.95981  1      713
siesta:     38.75021  16.00276  40.95981  1      714
siesta:     46.78348  15.45648  40.95981  1      715
siesta:     54.81676  14.91020  40.95981  1      716
siesta:     62.85004  14.36392  40.95981  1      717
siesta:     70.88332  13.81764  40.95981  1      718
siesta:     18.82471  19.68746  40.95981  1      719
siesta:     26.85799  19.14118  40.95981  1      720
siesta:     34.89126  18.59491  40.95981  1      721
siesta:     42.92454  18.04863  40.95981  1      722
siesta:     50.95782  17.50235  40.95981  1      723
siesta:     58.99110  16.95607  40.95981  1      724
siesta:     67.02437  16.40979  40.95981  1      725
siesta:     75.05765  15.86351  40.95981  1      726
siesta:     14.96577  22.27961  40.95981  1      727
siesta:     22.99904  21.73333  40.95981  1      728
siesta:     31.03232  21.18705  40.95981  1      729
siesta:     39.06560  20.64077  40.95981  1      730
siesta:     47.09888  20.09449  40.95981  1      731
siesta:     55.13215  19.54822  40.95981  1      732
siesta:     63.16543  19.00194  40.95981  1      733
siesta:     71.19871  18.45566  40.95981  1      734
siesta:     79.23199  17.90938  40.95981  1      735
siesta:     19.14010  24.32548  40.95981  1      736
siesta:     27.17338  23.77920  40.95981  1      737
siesta:     35.20666  23.23292  40.95981  1      738
siesta:     43.23994  22.68664  40.95981  1      739
siesta:     51.27321  22.14036  40.95981  1      740
siesta:     59.30649  21.59408  40.95981  1      741
siesta:     67.33977  21.04780  40.95981  1      742
siesta:     75.37305  20.50153  40.95981  1      743
siesta:     23.31444  26.37135  40.95981  1      744
siesta:     31.34772  25.82507  40.95981  1      745
siesta:     39.38099  25.27879  40.95981  1      746
siesta:     47.41427  24.73251  40.95981  1      747
siesta:     55.44755  24.18623  40.95981  1      748
siesta:     63.48083  23.63995  40.95981  1      749
siesta:     71.51410  23.09367  40.95981  1      750
siesta:     79.54738  22.54739  40.95981  1      751
siesta:     19.45550  28.96349  40.95981  1      752
siesta:     27.48877  28.41721  40.95981  1      753
siesta:     35.52205  27.87093  40.95981  1      754
siesta:     43.55533  27.32466  40.95981  1      755
siesta:     51.58861  26.77838  40.95981  1      756
siesta:     59.62188  26.23210  40.95981  1      757
siesta:     67.65516  25.68582  40.95981  1      758
siesta:     75.68844  25.13954  40.95981  1      759
siesta:     83.72172  24.59326  40.95981  1      760
siesta:     23.62983  31.00936  40.95981  1      761
siesta:     31.66311  30.46308  40.95981  1      762
siesta:     39.69639  29.91680  40.95981  1      763
siesta:     47.72967  29.37052  40.95981  1      764
siesta:     55.76294  28.82425  40.95981  1      765
siesta:     63.79622  28.27797  40.95981  1      766
siesta:     71.82950  27.73169  40.95981  1      767
siesta:     79.86278  27.18541  40.95981  1      768
siesta:     27.80417  33.05523  40.95981  1      769
siesta:     35.83745  32.50895  40.95981  1      770
siesta:     43.87072  31.96267  40.95981  1      771
siesta:     51.90400  31.41639  40.95981  1      772
siesta:     59.93728  30.87011  40.95981  1      773
siesta:     67.97056  30.32383  40.95981  1      774
siesta:     76.00383  29.77756  40.95981  1      775
siesta:     84.03711  29.23128  40.95981  1      776
siesta:     23.94523  35.64738  40.95981  1      777
siesta:     31.97850  35.10110  40.95981  1      778
siesta:     40.01178  34.55482  40.95981  1      779
siesta:     48.04506  34.00854  40.95981  1      780
siesta:     56.07834  33.46226  40.95981  1      781
siesta:     64.11161  32.91598  40.95981  1      782
siesta:     72.14489  32.36970  40.95981  1      783
siesta:     80.17817  31.82342  40.95981  1      784
siesta:     88.21145  31.27714  40.95981  1      785
siesta:     28.11956  37.69324  40.95981  1      786
siesta:     36.15284  37.14696  40.95981  1      787
siesta:     44.18612  36.60069  40.95981  1      788
siesta:     52.21940  36.05441  40.95981  1      789
siesta:     60.25267  35.50813  40.95981  1      790
siesta:     68.28595  34.96185  40.95981  1      791
siesta:     76.31923  34.41557  40.95981  1      792
siesta:     84.35251  33.86929  40.95981  1      793
siesta:     32.29390  39.73911  40.95981  1      794
siesta:     40.32718  39.19283  40.95981  1      795
siesta:     48.36045  38.64655  40.95981  1      796
siesta:     56.39373  38.10027  40.95981  1      797
siesta:     64.42701  37.55400  40.95981  1      798
siesta:     72.46029  37.00772  40.95981  1      799
siesta:     80.49356  36.46144  40.95981  1      800
siesta:     88.52684  35.91516  40.95981  1      801
siesta:     28.43496  42.33126  40.95981  1      802
siesta:     36.46824  41.78498  40.95981  1      803
siesta:     44.50151  41.23870  40.95981  1      804
siesta:     52.53479  40.69242  40.95981  1      805
siesta:     60.56807  40.14614  40.95981  1      806
siesta:     68.60134  39.59986  40.95981  1      807
siesta:     76.63462  39.05359  40.95981  1      808
siesta:     84.66790  38.50731  40.95981  1      809
siesta:     92.70118  37.96103  40.95981  1      810
siesta:     32.60929  44.37713  40.95981  1      811
siesta:     40.64257  43.83085  40.95981  1      812
siesta:     48.67585  43.28457  40.95981  1      813
siesta:     56.70913  42.73829  40.95981  1      814
siesta:     64.74240  42.19201  40.95981  1      815
siesta:     72.77568  41.64573  40.95981  1      816
siesta:     80.80896  41.09945  40.95981  1      817
siesta:     88.84224  40.55317  40.95981  1      818
siesta:     36.78363  46.42299  40.95981  1      819
siesta:     44.81691  45.87672  40.95981  1      820
siesta:     52.85018  45.33044  40.95981  1      821
siesta:     60.88346  44.78416  40.95981  1      822
siesta:     68.91674  44.23788  40.95981  1      823
siesta:     76.95002  43.69160  40.95981  1      824
siesta:     84.98329  43.14532  40.95981  1      825
siesta:     93.01657  42.59904  40.95981  1      826
siesta:     32.92469  49.01514  40.95981  1      827
siesta:     40.95797  48.46886  40.95981  1      828
siesta:     48.99124  47.92258  40.95981  1      829
siesta:     57.02452  47.37630  40.95981  1      830
siesta:     65.05780  46.83003  40.95981  1      831
siesta:     73.09108  46.28375  40.95981  1      832
siesta:     81.12435  45.73747  40.95981  1      833
siesta:     89.15763  45.19119  40.95981  1      834
siesta:     97.19091  44.64491  40.95981  1      835
siesta:     37.09902  51.06101  40.95981  1      836
siesta:     45.13230  50.51473  40.95981  1      837
siesta:     53.16558  49.96845  40.95981  1      838
siesta:     61.19886  49.42217  40.95981  1      839
siesta:     69.23213  48.87589  40.95981  1      840
siesta:     77.26541  48.32962  40.95981  1      841
siesta:     85.29869  47.78334  40.95981  1      842
siesta:     93.33197  47.23706  40.95981  1      843
siesta:     41.27336  53.10688  40.95981  1      844
siesta:     49.30664  52.56060  40.95981  1      845
siesta:     57.33991  52.01432  40.95981  1      846
siesta:     65.37319  51.46804  40.95981  1      847
siesta:     73.40647  50.92176  40.95981  1      848
siesta:     81.43975  50.37548  40.95981  1      849
siesta:     89.47302  49.82920  40.95981  1      850
siesta:     97.50630  49.28293  40.95981  1      851
siesta:     37.41442  55.69902  40.95981  1      852
siesta:     45.44770  55.15275  40.95981  1      853
siesta:     53.48097  54.60647  40.95981  1      854
siesta:     61.51425  54.06019  40.95981  1      855
siesta:     69.54753  53.51391  40.95981  1      856
siesta:     77.58081  52.96763  40.95981  1      857
siesta:     85.61408  52.42135  40.95981  1      858
siesta:     93.64736  51.87507  40.95981  1      859
siesta:    101.68064  51.32879  40.95981  1      860
siesta:     41.58875  57.74489  40.95981  1      861
siesta:     49.62203  57.19861  40.95981  1      862
siesta:     57.65531  56.65233  40.95981  1      863
siesta:     65.68859  56.10606  40.95981  1      864
siesta:     73.72186  55.55978  40.95981  1      865
siesta:     81.75514  55.01350  40.95981  1      866
siesta:     89.78842  54.46722  40.95981  1      867
siesta:     97.82170  53.92094  40.95981  1      868

siesta: System type = slab      

initatomlists: Number of atoms, orbitals, and projectors:    868  7812  6944

siesta: ******************** Simulation parameters ****************************
siesta:
siesta: The following are some of the parameters of the simulation.
siesta: A complete list of the parameters used, including default values,
siesta: can be found in file out.fdf
siesta:
redata: Spin configuration                          = none
redata: Number of spin components                   = 1
redata: Time-Reversal Symmetry                      = T
redata: Spin spiral                                 = F
redata: Long output                                 =   F
redata: Number of Atomic Species                    =        1
redata: Charge density info will appear in .RHO file
redata: Write Mulliken Pop.                         = NO
redata: Matel table size (NRTAB)                    =     1024
redata: Mesh Cutoff                                 =   300.0000 Ry
redata: Net charge of the system                    =     0.0000 |e|
redata: Min. number of SCF Iter                     =        3
redata: Max. number of SCF Iter                     =      300
redata: SCF convergence failure will abort job
redata: SCF mix quantity                            = Hamiltonian
redata: Mix DM or H after convergence               =   F
redata: Recompute H after scf cycle                 =   F
redata: Mix DM in first SCF step                    =   T
redata: Write Pulay info on disk                    =   F
redata: New DM Occupancy tolerance                  = 0.000000000001
redata: No kicks to SCF
redata: DM Mixing Weight for Kicks                  =     0.5000
redata: Require Harris convergence for SCF          =   F
redata: Harris energy tolerance for SCF             =     0.000100 eV
redata: Require DM convergence for SCF              =   T
redata: DM tolerance for SCF                        =     0.000100
redata: Require EDM convergence for SCF             =   F
redata: EDM tolerance for SCF                       =     0.001000 eV
redata: Require H convergence for SCF               =   T
redata: Hamiltonian tolerance for SCF               =     0.001000 eV
redata: Require (free) Energy convergence for SCF   =   F
redata: (free) Energy tolerance for SCF             =     0.000100 eV
redata: Using DFT-D3 dispersion                     =   T
redata: Using Saved Data (generic)                  =   F
redata: Use continuation files for DM               =   T
redata: Neglect nonoverlap interactions             =   F
redata: Method of Calculation                       = Diagonalization
redata: Electronic Temperature                      =   299.9863 K
redata: Fix the spin of the system                  =   F
redata: Max. number of TDED Iter                    =        1
redata: Number of TDED substeps                     =        3
redata: Dynamics option                             = CG coord. optimization
redata: Variable cell                               =   F
redata: Use continuation files for CG               =   F
redata: Max atomic displ per move                   =     0.2646 Ang
redata: Maximum number of optimization moves        =      200
redata: Force tolerance                             =     0.0100 eV/Ang
mix.SCF: Pulay mixing                            = Pulay
mix.SCF:    Variant                              = stable
mix.SCF:    History steps                        = 12
mix.SCF:    Linear mixing weight                 =     0.100000
mix.SCF:    Mixing weight                        =     0.100000
mix.SCF:    SVD condition                        = 0.1000E-07
redata: Save all siesta data in one NC              =   F
redata: ***********************************************************************

%block SCF.Mixers
  Pulay
%endblock SCF.Mixers

%block SCF.Mixer.Pulay
  # Mixing method
  method pulay
  variant stable

  # Mixing options
  weight 0.1000
  weight.linear 0.1000
  history 12
%endblock SCF.Mixer.Pulay
 
DFT-D3: loading default parameters for functional PBE.
DM_history_depth set to one: no extrapolation allowed by default for geometry relaxation
Size of DM history Fstack: 1
Total number of electrons:  3472.000000
Total ionic charge:  3472.000000

* ProcessorY, Blocksize:    8  64


* Orbital distribution balance (max,min):   128    64

 Kpoints in:            1 . Kpoints trimmed:            1

siesta: k-grid: Number of k-points = 1
siesta: k-points from Monkhorst-Pack grid
siesta: k-cutoff (effective) =    18.119 Ang
siesta: k-point supercell and displacements
siesta: k-grid:     1     0     0      0.000
siesta: k-grid:     0     1     0      0.000
siesta: k-grid:     0     0     1      0.000
 
diag: Algorithm                                     = D&C
diag: Parallel over k                               =   F
diag: Use parallel 2D distribution                  =   T
diag: Parallel block-size                           = 64
diag: Parallel distribution                         =     8 x     8
diag: Used triangular part                          = Lower
diag: Absolute tolerance                            =  0.100E-15
diag: Orthogonalization factor                      =  0.100E-05
diag: Memory factor                                 =  1.0000
 
siesta: Constraint v=[  0.00000,  0.00000,  1.00000] (868): center-dir
  [ 1 -- 868 ]
 
 
ts: **************************************************************
ts: Save H and S matrices                           =    F
ts: Save DM and EDM matrices                        =    F
ts: Only save the overlap matrix S                  =    F
ts: **************************************************************
 
************************ Begin: TS CHECKS AND WARNINGS ************************
************************ End: TS CHECKS AND WARNINGS **************************


                     ====================================
                        Begin CG opt. move =      0
                     ====================================

outcell: Unit cell vectors (Ang):
       36.217182   -1.230000    0.000000
       19.173802   30.750000    0.000000
        0.000000    0.000000   40.000000

outcell: Cell vector modules (Ang)   :   36.238063   36.238063   40.000000
outcell: Cell angles (23,13,12) (deg):     90.0000     90.0000     60.0000
outcell: Cell volume (Ang**3)        :  45490.4854
<dSpData1D:S at geom step 0
  <sparsity:sparsity for geom step 0
    nrows_g=7812 nrows=128 sparsity=.0020 nnzs=124078, refcount: 7>
  <dData1D:(new from dSpData1D) n=124078, refcount: 1>
refcount: 1>
new_DM -- step:     1
Initializing Density Matrix...
 
Attempting to read DM from file... Succeeded...
DM from file:
<dSpData2D:IO-DM: Graphene.DM
  <sparsity:IO-DM: Graphene.DM
    nrows_g=7812 nrows=128 sparsity=.0020 nnzs=124078, refcount: 1>
  <dData2D:(new from dSpData2D) n=124078 m=1, refcount: 1>
refcount: 1>
DM to be used:
<dSpData2D:Re-structured SpM
  <sparsity:sparsity for geom step 0
    nrows_g=7812 nrows=128 sparsity=.0020 nnzs=124078, refcount: 8>
  <dData2D:(new in restruct) n=124078 m=1, refcount: 1>
refcount: 1>
No. of atoms with KB's overlaping orbs in proc 0. Max # of overlaps:     245     238

InitMesh: MESH = 360 x 360 x 432 = 55987200
InitMesh: Mesh cutoff (required, used) =   300.000   322.366 Ry
New grid distribution [1]: sub = 2
New grid distribution [2]: sub = 2
New grid distribution [3]: sub = 2
Setting up quadratic distribution...

stepf: Fermi-Dirac step function

siesta: Program's energy decomposition (eV):
siesta: Ebs     =    -42891.501630
siesta: Eions   =    244916.362311
siesta: Ena     =     54080.791048
siesta: Ekin    =     99830.209347
siesta: Enl     =     -5273.916997
siesta: Eso     =         0.000000
siesta: Edftu   =         0.000000
siesta: DEna    =      5060.207688
siesta: DUscf   =       238.026887
siesta: DUext   =         0.000000
siesta: Ex      =    -46508.994056
siesta: Ec      =     -4407.608453
siesta: Exc     =    -50916.602509
siesta: EbV     =         0.000000
siesta: eta*DQ  =         0.000000
siesta: Emadel  =         0.000000
siesta: Emeta   =         0.000000
siesta: Emolmec =         0.000000
siesta: Ekinion =         0.000000
siesta: Eharris =   -141909.295350
siesta: Etot    =   -141897.646847
siesta: FreeEng =   -141897.646847

        iscf     Eharris(eV)        E_KS(eV)     FreeEng(eV)     dDmax    Ef(eV) dHmax(eV)
   scf:    1  -141909.295350  -141897.646847  -141897.646847  0.089947 -5.180737  2.630975
timer: Routine,Calls,Time,% = IterSCF        1      12.987  51.98
   scf:    2  -141907.028541  -141902.490167  -141902.490167  0.004183 -4.973698  2.066572
   scf:    3  -141915.790474  -141911.274557  -141911.274557  0.016677 -4.141031  0.448636
   scf:    4  -141912.351120  -141911.831856  -141911.831856  0.002497 -4.075474  0.162051
   scf:    5  -141912.860740  -141912.473864  -141912.473865  0.005076 -3.943618  0.028609
   scf:    6  -141912.474429  -141912.475622  -141912.475622  0.000276 -3.957946  0.012019
   scf:    7  -141912.476389  -141912.476105  -141912.476106  0.000063 -3.953917  0.003000
   scf:    8  -141912.475802  -141912.475976  -141912.475977  0.000048 -3.955433  0.006698
   scf:    9  -141912.476140  -141912.476064  -141912.476064  0.000014 -3.954458  0.004530
   scf:   10  -141912.476157  -141912.476132  -141912.476133  0.000031 -3.952204  0.000223

SCF Convergence by DM+H criterion
max |DM_out - DM_in|         :     0.0000310028
max |H_out - H_in|      (eV) :     0.0002230766
SCF cycle converged after 10 iterations

Using DM_out to compute the final energy and forces
No. of atoms with KB's overlaping orbs in proc 0. Max # of overlaps:     245     238
System symmetry is of type slab but no DFTD3.Periodic list was found. Attempting to guess symmetry for D3.
Could not guess the right amount of periodicity directions for D3.
Enabling periodicity on all directions.

siesta: E_KS(eV) =          -142000.1824

siesta: E_KS - E_eggbox =   -142000.1824

siesta: Atomic forces (eV/Ang):
----------------------------------------
   Tot    0.000000    0.000000   -0.000001
----------------------------------------
   Max    0.050953
   Res    0.016377    sqrt( Sum f_i^2 / 3N )
----------------------------------------
   Max    0.050953    constrained

Stress tensor Voigt[x,y,z,yz,xz,xy] (kbar):      -25.77      -25.77       -5.40       -0.00        0.00        0.00
(Free)E + p*V (eV/cell)  -141461.2677
Target enthalpy (eV/cell)  -142000.1824

                     ====================================
                        Begin CG opt. move =      1
                     ====================================

outcell: Unit cell vectors (Ang):
       36.217182   -1.230000    0.000000
       19.173802   30.750000    0.000000
        0.000000    0.000000   40.000000

outcell: Cell vector modules (Ang)   :   36.238063   36.238063   40.000000
outcell: Cell angles (23,13,12) (deg):     90.0000     90.0000     60.0000
outcell: Cell volume (Ang**3)        :  45490.4854
<dSpData1D:S at geom step 1
  <sparsity:sparsity for geom step 1
    nrows_g=7812 nrows=128 sparsity=.0020 nnzs=123659, refcount: 7>
  <dData1D:(new from dSpData1D) n=123659, refcount: 1>
refcount: 1>
new_DM -- step:     2
Re-using DM from previous geometries...
Number of DMs in history: 1
 DM extrapolation coefficients: 
1   1.00000
New DM after history re-use:
<dSpData2D:SpM extrapolated using coords
  <sparsity:sparsity for geom step 1
    nrows_g=7812 nrows=128 sparsity=.0020 nnzs=123659, refcount: 9>
  <dData2D:(temp array for extrapolation) n=123659 m=1, refcount: 1>
refcount: 1>
No. of atoms with KB's overlaping orbs in proc 0. Max # of overlaps:     243     234

InitMesh: MESH = 360 x 360 x 432 = 55987200
InitMesh: Mesh cutoff (required, used) =   300.000   322.366 Ry
New grid distribution [1]: sub = 2
New grid distribution [2]: sub = 2
New grid distribution [3]: sub = 2
Setting up quadratic distribution...

        iscf     Eharris(eV)        E_KS(eV)     FreeEng(eV)     dDmax    Ef(eV) dHmax(eV)
   scf:    1  -142001.617445  -142000.566505  -142000.566505  0.002973 -3.952555  0.087742
   scf:    2  -142000.241131  -142000.464062  -142000.464062  0.001808 -3.951196  0.623296
   scf:    3  -142000.581406  -142000.568998  -142000.568999  0.001573 -3.952263  0.005440
   scf:    4  -142000.569478  -142000.569254  -142000.569254  0.000059 -3.952154  0.003343
   scf:    5  -142000.569442  -142000.569352  -142000.569353  0.000046 -3.952269  0.001696
   scf:    6  -142000.569413  -142000.569386  -142000.569386  0.000042 -3.952505  0.000407

SCF Convergence by DM+H criterion
max |DM_out - DM_in|         :     0.0000420484
max |H_out - H_in|      (eV) :     0.0004069807
SCF cycle converged after 6 iterations

Using DM_out to compute the final energy and forces
No. of atoms with KB's overlaping orbs in proc 0. Max # of overlaps:     243     234
System symmetry is of type slab but no DFTD3.Periodic list was found. Attempting to guess symmetry for D3.
Could not guess the right amount of periodicity directions for D3.
Enabling periodicity on all directions.

siesta: E_KS(eV) =          -142000.3017

siesta: Atomic forces (eV/Ang):
----------------------------------------
   Tot    0.000001    0.000000   -0.000001
----------------------------------------
   Max    0.256012
   Res    0.087317    sqrt( Sum f_i^2 / 3N )
----------------------------------------
   Max    0.256012    constrained

Stress tensor Voigt[x,y,z,yz,xz,xy] (kbar):      -25.80      -25.84       -5.23       -0.00       -0.00        0.02
(Free)E + p*V (eV/cell)  -141462.1092
Target enthalpy (eV/cell)  -142000.3017

                     ====================================
                        Begin CG opt. move =      2
                     ====================================

outcell: Unit cell vectors (Ang):
       36.217182   -1.230000    0.000000
       19.173802   30.750000    0.000000
        0.000000    0.000000   40.000000

outcell: Cell vector modules (Ang)   :   36.238063   36.238063   40.000000
outcell: Cell angles (23,13,12) (deg):     90.0000     90.0000     60.0000
outcell: Cell volume (Ang**3)        :  45490.4854
<dSpData1D:S at geom step 2
  <sparsity:sparsity for geom step 2
    nrows_g=7812 nrows=128 sparsity=.0020 nnzs=123317, refcount: 7>
  <dData1D:(new from dSpData1D) n=123317, refcount: 1>
refcount: 1>
new_DM -- step:     3
Re-using DM from previous geometries...
Number of DMs in history: 1
 DM extrapolation coefficients: 
1   1.00000
New DM after history re-use:
<dSpData2D:SpM extrapolated using coords
  <sparsity:sparsity for geom step 2
    nrows_g=7812 nrows=128 sparsity=.0020 nnzs=123317, refcount: 9>
  <dData2D:(temp array for extrapolation) n=123317 m=1, refcount: 1>
refcount: 1>
No. of atoms with KB's overlaping orbs in proc 0. Max # of overlaps:     240     233

InitMesh: MESH = 360 x 360 x 432 = 55987200
InitMesh: Mesh cutoff (required, used) =   300.000   322.366 Ry
New grid distribution [1]: sub = 2
New grid distribution [2]: sub = 2
New grid distribution [3]: sub = 2
Setting up quadratic distribution...

        iscf     Eharris(eV)        E_KS(eV)     FreeEng(eV)     dDmax    Ef(eV) dHmax(eV)
   scf:    1  -142001.913609  -142000.491862  -142000.491862  0.004808 -3.953435  0.109034
   scf:    2  -141999.968623  -142000.327628  -142000.327629  0.002307 -3.949561  0.773016
   scf:    3  -142000.515848  -142000.496372  -142000.496372  0.002003 -3.952721  0.008639
   scf:    4  -142000.497595  -142000.497025  -142000.497025  0.000090 -3.952492  0.005446
   scf:    5  -142000.497489  -142000.497267  -142000.497267  0.000066 -3.952636  0.003051
   scf:    6  -142000.497464  -142000.497375  -142000.497376  0.000077 -3.953075  0.000600

SCF Convergence by DM+H criterion
max |DM_out - DM_in|         :     0.0000771102
max |H_out - H_in|      (eV) :     0.0006001240
SCF cycle converged after 6 iterations

Using DM_out to compute the final energy and forces
No. of atoms with KB's overlaping orbs in proc 0. Max # of overlaps:     240     233
System symmetry is of type slab but no DFTD3.Periodic list was found. Attempting to guess symmetry for D3.
Could not guess the right amount of periodicity directions for D3.
Enabling periodicity on all directions.

siesta: E_KS(eV) =          -142000.0721

siesta: Atomic forces (eV/Ang):
----------------------------------------
   Tot    0.000004   -0.000006    0.000000
----------------------------------------
   Max    0.680756
   Res    0.229011    sqrt( Sum f_i^2 / 3N )
----------------------------------------
   Max    0.680756    constrained

Stress tensor Voigt[x,y,z,yz,xz,xy] (kbar):      -25.88      -25.96       -4.99        0.00       -0.00        0.06
(Free)E + p*V (eV/cell)  -141462.2577
Target enthalpy (eV/cell)  -142000.0721

                     ====================================
                        Begin CG opt. move =      3
                     ====================================

outcell: Unit cell vectors (Ang):
       36.217182   -1.230000    0.000000
       19.173802   30.750000    0.000000
        0.000000    0.000000   40.000000

outcell: Cell vector modules (Ang)   :   36.238063   36.238063   40.000000
outcell: Cell angles (23,13,12) (deg):     90.0000     90.0000     60.0000
outcell: Cell volume (Ang**3)        :  45490.4854
<dSpData1D:S at geom step 3
  <sparsity:sparsity for geom step 3
    nrows_g=7812 nrows=128 sparsity=.0020 nnzs=123648, refcount: 7>
  <dData1D:(new from dSpData1D) n=123648, refcount: 1>
refcount: 1>
new_DM -- step:     4
Re-using DM from previous geometries...
Number of DMs in history: 1
 DM extrapolation coefficients: 
1   1.00000
New DM after history re-use:
<dSpData2D:SpM extrapolated using coords
  <sparsity:sparsity for geom step 3
    nrows_g=7812 nrows=128 sparsity=.0020 nnzs=123648, refcount: 9>
  <dData2D:(temp array for extrapolation) n=123648 m=1, refcount: 1>
refcount: 1>
No. of atoms with KB's overlaping orbs in proc 0. Max # of overlaps:     243     234

InitMesh: MESH = 360 x 360 x 432 = 55987200
InitMesh: Mesh cutoff (required, used) =   300.000   322.366 Ry
New grid distribution [1]: sub = 2
New grid distribution [2]: sub = 2
New grid distribution [3]: sub = 2
Setting up quadratic distribution...

        iscf     Eharris(eV)        E_KS(eV)     FreeEng(eV)     dDmax    Ef(eV) dHmax(eV)
   scf:    1  -141998.586452  -141999.898550  -141999.898551  0.004521 -3.952303  0.020663
   scf:    2  -141999.883917  -141999.895147  -141999.895148  0.000792 -3.955732  0.084871
   scf:    3  -141999.900164  -141999.900092  -141999.900092  0.000631 -3.953070  0.007284
   scf:    4  -141999.900852  -141999.900491  -141999.900492  0.000067 -3.953199  0.004884
   scf:    5  -141999.900888  -141999.900699  -141999.900699  0.000065 -3.952984  0.002572
   scf:    6  -141999.900837  -141999.900774  -141999.900775  0.000062 -3.952653  0.000850

SCF Convergence by DM+H criterion
max |DM_out - DM_in|         :     0.0000615532
max |H_out - H_in|      (eV) :     0.0008502301
SCF cycle converged after 6 iterations

Using DM_out to compute the final energy and forces
No. of atoms with KB's overlaping orbs in proc 0. Max # of overlaps:     243     234
System symmetry is of type slab but no DFTD3.Periodic list was found. Attempting to guess symmetry for D3.
Could not guess the right amount of periodicity directions for D3.
Enabling periodicity on all directions.

siesta: E_KS(eV) =          -142000.3025

siesta: Atomic forces (eV/Ang):
----------------------------------------
   Tot    0.000001   -0.000000   -0.000002
----------------------------------------
   Max    0.279922
   Res    0.095211    sqrt( Sum f_i^2 / 3N )
----------------------------------------
   Max    0.279922    constrained

Stress tensor Voigt[x,y,z,yz,xz,xy] (kbar):      -25.81      -25.84       -5.21       -0.00       -0.00        0.03
(Free)E + p*V (eV/cell)  -141462.1085
Target enthalpy (eV/cell)  -142000.3025

cgvc: Finished line minimization    1.  Mean atomic displacement =    0.0185

                     ====================================
                        Begin CG opt. move =      4
                     ====================================

outcell: Unit cell vectors (Ang):
       36.217182   -1.230000    0.000000
       19.173802   30.750000    0.000000
        0.000000    0.000000   40.000000

outcell: Cell vector modules (Ang)   :   36.238063   36.238063   40.000000
outcell: Cell angles (23,13,12) (deg):     90.0000     90.0000     60.0000
outcell: Cell volume (Ang**3)        :  45490.4854
<dSpData1D:S at geom step 4
  <sparsity:sparsity for geom step 4
    nrows_g=7812 nrows=128 sparsity=.0020 nnzs=123447, refcount: 7>
  <dData1D:(new from dSpData1D) n=123447, refcount: 1>
refcount: 1>
new_DM -- step:     5
Re-using DM from previous geometries...
Number of DMs in history: 1
 DM extrapolation coefficients: 
1   1.00000
New DM after history re-use:
<dSpData2D:SpM extrapolated using coords
  <sparsity:sparsity for geom step 4
    nrows_g=7812 nrows=128 sparsity=.0020 nnzs=123447, refcount: 9>
  <dData2D:(temp array for extrapolation) n=123447 m=1, refcount: 1>
refcount: 1>
No. of atoms with KB's overlaping orbs in proc 0. Max # of overlaps:     242     233

InitMesh: MESH = 360 x 360 x 432 = 55987200
InitMesh: Mesh cutoff (required, used) =   300.000   322.366 Ry
New grid distribution [1]: sub = 2
New grid distribution [2]: sub = 2
New grid distribution [3]: sub = 2
Setting up quadratic distribution...

        iscf     Eharris(eV)        E_KS(eV)     FreeEng(eV)     dDmax    Ef(eV) dHmax(eV)
   scf:    1  -142001.880575  -142000.804236  -142000.804236  0.000840 -3.952828  0.008938
   scf:    2  -142000.797939  -142000.802443  -142000.802443  0.000514 -3.951254  0.047752
   scf:    3  -142000.804708  -142000.804476  -142000.804476  0.000420 -3.952521  0.001890
   scf:    4  -142000.804534  -142000.804508  -142000.804508  0.000017 -3.952494  0.001055
   scf:    5  -142000.804526  -142000.804517  -142000.804518  0.000009 -3.952584  0.000904

SCF Convergence by DM+H criterion
max |DM_out - DM_in|         :     0.0000091329
max |H_out - H_in|      (eV) :     0.0009035711
SCF cycle converged after 5 iterations

Using DM_out to compute the final energy and forces
No. of atoms with KB's overlaping orbs in proc 0. Max # of overlaps:     242     233
System symmetry is of type slab but no DFTD3.Periodic list was found. Attempting to guess symmetry for D3.
Could not guess the right amount of periodicity directions for D3.
Enabling periodicity on all directions.

siesta: E_KS(eV) =          -142000.5118

siesta: Atomic forces (eV/Ang):
----------------------------------------
   Tot   -0.000010    0.000019   -0.000002
----------------------------------------
   Max    0.211031
   Res    0.072598    sqrt( Sum f_i^2 / 3N )
----------------------------------------
   Max    0.211031    constrained

Stress tensor Voigt[x,y,z,yz,xz,xy] (kbar):      -25.85      -25.87       -5.05       -0.00       -0.00        0.02
(Free)E + p*V (eV/cell)  -141463.2309
Target enthalpy (eV/cell)  -142000.5118

                     ====================================
                        Begin CG opt. move =      5
                     ====================================

outcell: Unit cell vectors (Ang):
       36.217182   -1.230000    0.000000
       19.173802   30.750000    0.000000
        0.000000    0.000000   40.000000

outcell: Cell vector modules (Ang)   :   36.238063   36.238063   40.000000
[...]
   21.95879396   19.46338780   21.76801467   1     570  C
   26.21218263   19.17292773   21.75191436   1     571  C
   30.46629009   18.88378529   21.73213876   1     572  C
   34.71899573   18.59622155   21.71901807   1     573  C
   38.97007334   18.30944235   21.71901695   1     574  C
   43.21933445   18.02184060   21.73124074   1     575  C
   47.46762820   17.73290715   21.74706195   1     576  C
   15.66496059   21.12785717   21.78307202   1     577  C
   19.91560619   20.83567042   21.78620900   1     578  C
   24.16824249   20.54442842   21.77160551   1     579  C
   28.42203699   20.25444458   21.74708805   1     580  C
   32.67539055   19.96648469   21.72500367   1     581  C
   36.92732078   19.68001214   21.71624517   1     582  C
   41.17770823   19.39359345   21.72472422   1     583  C
   45.42627323   19.10542232   21.74447807   1     584  C
   17.87346194   22.20888369   21.80142865   1     585  C
   22.12496631   21.91669319   21.79366324   1     586  C
   26.37819174   21.62554209   21.76853382   1     587  C
   30.63182244   21.33687337   21.73876424   1     588  C
   34.88431114   21.05021296   21.71974516   1     589  C
   39.13545299   20.76420956   21.71974477   1     590  C
   43.38504607   20.47752044   21.73790337   1     591  C
   47.63336912   20.18865892   21.76368436   1     592  C
   15.83217187   23.58276445   21.80999962   1     593  C
   20.08266614   23.28960371   21.81443269   1     594  C
   24.33500881   22.99737083   21.79365009   1     595  C
   28.58833781   22.70717335   21.76012081   1     596  C
   32.84112331   22.41998757   21.73051257   1     597  C
   37.09289213   22.13437257   21.71901741   1     598  C
   41.34330683   21.84877346   21.73051241   1     599  C
   45.59245985   21.56120796   21.75785540   1     600  C
   49.84099497   21.27138316   21.78666504   1     601  C
   18.04110525   24.66328908   21.82903322   1     602  C
   22.29269844   24.37000608   21.81917314   1     603  C
   26.54536154   24.07829925   21.78637870   1     604  C
   30.79811827   23.79008595   21.74866360   1     605  C
   35.05017140   23.50416389   21.72472462   1     606  C
   39.30137654   23.21905371   21.72500392   1     607  C
   43.55134960   22.93301890   21.74866335   1     608  C
   47.80011605   22.64436599   21.78299350   1     609  C
   20.25094365   25.74346396   21.83941982   1     610  C
   24.50325025   25.45034321   21.81461197   1     611  C
   28.75560306   25.16035220   21.77296329   1     612  C
   33.00779387   24.87380969   21.73790328   1     613  C
   37.25925678   24.58871800   21.72512721   1     614  C
   41.50995203   24.30364102   21.73876474   1     615  C
   45.75929286   24.01675407   21.77296294   1     616  C
   50.00854743   23.72653670   21.80984912   1     617  C
   18.21000366   27.11781793   21.85080766   1     618  C
   22.46145363   26.82341924   21.83956761   1     619  C
   26.71364323   26.53157929   21.80131036   1     620  C
   30.96558532   26.24364343   21.75785540   1     621  C
   35.21733011   25.95813794   21.73124069   1     622  C
   39.46827991   25.67353969   21.73213904   1     623  C
   43.71840807   25.38820056   21.76012110   1     624  C
   47.96778892   25.09952964   21.80131021   1     625  C
   52.21748488   24.80761527   21.83413828   1     626  C
   20.42033484   28.19741722   21.85667754   1     627  C
   24.67202364   27.90386513   21.82889735   1     628  C
   28.92371470   27.61395090   21.78299391   1     629  C
   33.17545192   27.32761080   21.74447711   1     630  C
   37.42676317   27.04300514   21.73102455   1     631  C
   41.67743328   26.75858512   21.74708873   1     632  C
   45.92732739   26.47190659   21.78637851   1     633  C
   50.17703226   26.18148149   21.82889705   1     634  C
   22.63114664   29.27714830   21.85052710   1     635  C
   26.88231129   28.98542384   21.80984943   1     636  C
   31.13379260   28.69739541   21.76368353   1     637  C
   35.38516365   28.41238509   21.73576606   1     638  C
   39.63621349   28.12823354   21.73765094   1     639  C
   43.88676056   27.84305832   21.76853421   1     640  C
   48.13660625   27.55440453   21.81461144   1     641  C
   52.38676894   27.26229189   21.85052708   1     642  C
   20.59071654   30.65148306   21.86303356   1     643  C
   24.84160160   30.35788192   21.83413818   1     644  C
   29.09231228   30.06789394   21.78666485   1     645  C
   33.34340760   29.78173512   21.74706099   1     646  C
   37.59473726   29.49750378   21.73401862   1     647  C
   41.84573883   29.21313332   21.75191480   1     648  C
   46.09639092   28.92659203   21.79364958   1     649  C
   50.34662260   28.63611343   21.83956695   1     650  C
   54.59719248   28.34218870   21.86303328   1     651  C
    0.79379237    1.17781127   21.86303329   1     652  C
    5.04436223    0.88388661   21.83956694   1     653  C
    9.29459392    0.59340801   21.79364963   1     654  C
   13.54524609    0.30686661   21.75191483   1     655  C
   17.79624761    0.02249620   21.73401861   1     656  C
   22.04757720   -0.26173508   21.74706097   1     657  C
   26.29867252   -0.54789393   21.78666482   1     658  C
   30.54938327   -0.83788197   21.83413822   1     659  C
   34.80026833   -1.13148310   21.86303357   1     660  C
    3.00421585    2.25770819   21.85052709   1     661  C
    7.25437857    1.96559551   21.81461149   1     662  C
   11.50422422    1.67694168   21.76853423   1     663  C
   15.75477144    1.39176637   21.73765094   1     664  C
   20.00582116    1.10761487   21.73576606   1     665  C
   24.25719224    0.82260460   21.76368351   1     666  C
   28.50867349    0.53457620   21.80984945   1     667  C
   32.75983826    0.24285170   21.85052715   1     668  C
    5.21395248    3.33851859   21.82889710   1     669  C
    9.46365740    3.04809342   21.78637849   1     670  C
   13.71355152    2.76141482   21.74708874   1     671  C
   17.96422172    2.47699476   21.73102456   1     672  C
   22.21553293    2.19238920   21.74447709   1     673  C
   26.46727014    1.90604911   21.78299390   1     674  C
   30.71896131    1.61613492   21.82889741   1     675  C
   34.97065009    1.32258278   21.85667757   1     676  C
    3.17349998    4.71238470   21.83413828   1     677  C
    7.42319597    4.42047039   21.80131024   1     678  C
   11.67257674    4.13179946   21.76012103   1     679  C
   15.92270499    3.84646023   21.73213904   1     680  C
   20.17365467    3.56186206   21.73124073   1     681  C
   24.42539957    3.27635670   21.75785538   1     682  C
   28.67734153    2.98842080   21.80131040   1     683  C
   32.92953122    2.69658082   21.83956766   1     684  C
   37.18098114    2.40218205   21.85080766   1     685  C
    5.38243733    5.79346338   21.80984916   1     686  C
    9.63169196    5.50324600   21.77296286   1     687  C
   13.88103275    5.21635897   21.73876472   1     688  C
   18.13172807    4.93128194   21.72512725   1     689  C
   22.38319101    4.64619029   21.73790327   1     690  C
   26.63538190    4.35964785   21.77296328   1     691  C
   30.88773470    4.06965685   21.81461203   1     692  C
   35.14004124    3.77653599   21.83941980   1     693  C
    7.59086880    6.87563403   21.78299350   1     694  C
   11.83963520    6.58698109   21.74866330   1     695  C
   16.08960834    6.30094621   21.72500393   1     696  C
   20.34081356    6.01583614   21.72472464   1     697  C
   24.59286661    5.72991412   21.74866356   1     698  C
   28.84562326    5.44170087   21.78637871   1     699  C
   33.09828639    5.14999401   21.81917316   1     700  C
   37.34987953    4.85671089   21.82903323   1     701  C
    5.54998988    8.24861679   21.78666503   1     702  C
    9.79852499    7.95879199   21.75785535   1     703  C
   14.04767797    7.67122651   21.73051240   1     704  C
   18.29809268    7.38562738   21.71901743   1     705  C
   22.54986158    7.10001246   21.73051256   1     706  C
   26.80264698    6.81282679   21.76012079   1     707  C
   31.05597614    6.52262921   21.79365011   1     708  C
   35.30831867    6.23039623   21.81443268   1     709  C
   39.55881296    5.93723546   21.80999963   1     710  C
    7.75761569    9.33134102   21.76368435   1     711  C
   12.00593872    9.04247948   21.73790332   1     712  C
   16.25553188    8.75579039   21.71974479   1     713  C
   20.50667375    8.46978707   21.71974516   1     714  C
   24.75916242    8.18312662   21.73876420   1     715  C
   29.01279308    7.89445794   21.76853380   1     716  C
   33.26601848    7.60330681   21.79366323   1     717  C
   37.51752284    7.31111621   21.80142864   1     718  C
    9.96471157   10.41457757   21.74447803   1     719  C
   14.21327659   10.12640647   21.72472421   1     720  C
   18.46366408    9.83998784   21.71624521   1     721  C
   22.71559430    9.55351528   21.72500367   1     722  C
   26.96894778    9.26555539   21.74708800   1     723  C
   31.22274238    8.97557150   21.77160551   1     724  C
   35.47537854    8.68432951   21.78620900   1     725  C
   39.72602423    8.39214273   21.78307204   1     726  C
    7.92335664   11.78709272   21.74706196   1     727  C
   12.17165033   11.49815934   21.73124070   1     728  C
   16.42091152   11.21055767   21.71901694   1     729  C
   20.67198915   10.92377844   21.71901811   1     730  C
   24.92469472   10.63621461   21.73213875   1     731  C
   29.17880219   10.34707218   21.75191433   1     732  C
   33.43219089   10.05661215   21.76801467   1     733  C
   37.68414531    9.76547713   21.77348700   1     734  C
   41.93354867    9.47418612   21.76400596   1     735  C
   10.13012634   12.87063125   21.73576674   1     736  C
   14.37856731   12.58180802   21.72512652   1     737  C
   18.62878779   12.29438631   21.71974472   1     738  C
   22.88069839   12.00687446   21.72512722   1     739  C
   27.13448760   11.71812778   21.73765044   1     740  C
   31.38844255   11.42855773   21.75156881   1     741  C
   35.64123153   11.13797998   21.75956348   1     742  C
   39.89201732   10.84733039   21.75835361   1     743  C
   12.33684404   13.95401779   21.73102461   1     744  C
   16.58579046   13.66550291   21.72500261   1     745  C
   20.83690373   13.37772245   21.72472557   1     746  C
   25.08992805   13.08895323   21.73102496   1     747  C
   29.34414874   12.79973194   21.73930916   1     748  C
   33.59765252   12.50994686   21.74629179   1     749  C
   37.84950930   12.22003971   21.74876823   1     750  C
   42.09905741   11.92997845   21.74509725   1     751  C
   10.29517266   15.32673676   21.73401949   1     752  C
   14.54359440   15.03729082   21.73213811   1     753  C
   18.79345430   14.74872524   21.73051222   1     754  C
   23.04568825   14.45994538   21.73124152   1     755  C
   27.29957335   14.17073325   21.73401826   1     756  C
   31.55353132   13.88144871   21.73651244   1     757  C
   35.80651256   13.59200804   21.73838611   1     758  C
   40.05704120   13.30277728   21.73869501   1     759  C
   44.30580951   13.01310205   21.73640759   1     760  C
   12.50173365   16.41007146   21.73765077   1     761  C
   16.75079850   16.12047859   21.73876398   1     762  C
   21.00186385   15.83129529   21.73790400   1     763  C
   25.25504557   15.54172064   21.73576614   1     764  C
   29.50905336   15.25262754   21.73305169   1     765  C
   33.76269624   14.96336224   21.73075331   1     766  C
   38.01456851   14.67485419   21.73072002   1     767  C
   42.26403715   14.38589529   21.73298344   1     768  C
   14.70849452   17.49299452   21.74708814   1     769  C
   18.95849285   17.20306930   21.74866337   1     770  C
   23.21074913   16.91299991   21.74447749   1     771  C
   27.46439148   16.62347422   21.73640686   1     772  C
   31.71859941   16.33444569   21.72840832   1     773  C
   35.97128855   16.04611035   21.72393071   1     774  C
   40.22200098   15.75834741   21.72661234   1     775  C
   44.47066659   15.46925658   21.73305218   1     776  C
   12.66694586   18.86602631   21.75191492   1     777  C
   16.91577175   18.57533742   21.76012072   1     778  C
   21.16707125   18.28481713   21.75785513   1     779  C
   25.42006011   17.99460767   21.74706103   1     780  C
   29.67415110   17.70530494   21.73298330   1     781  C
   33.92767710   17.41694223   21.72182418   1     782  C
   38.17929033   17.12968040   21.72039488   1     783  C
   42.42901198   16.84187031   21.72840751   1     784  C
   46.67738915   16.55289148   21.73930962   1     785  C
   14.87397789   19.94856593   21.76853381   1     786  C
   19.12392209   19.65707320   21.77296298   1     787  C
   23.37618786   19.36602075   21.76368289   1     788  C
   27.62975511   19.07613976   21.74509666   1     789  C
   31.88374731   18.78753494   21.72661300   1     790  C
   36.13621226   18.50054491   21.71707302   1     791  C
   40.38700491   18.21373886   21.72182321   1     792  C
   44.63590476   17.92541514   21.73651267   1     793  C
   17.08171362   21.03017192   21.78637781   1     794  C
   21.33285728   20.73828298   21.78299320   1     795  C
   25.58573170   20.44737108   21.76400478   1     796  C
   29.83964237   20.15817782   21.73869474   1     797  C
   34.09271224   19.87090798   21.72039566   1     798  C
   38.34431094   19.58458534   21.71707253   1     799  C
   42.59435732   19.29765391   21.73075203   1     800  C
   46.84271453   19.00888886   21.75156983   1     801  C
   15.04042645   22.40392977   21.79364955   1     802  C
   19.29045908   22.11107539   21.80130988   1     803  C
   23.54233356   21.81924407   21.78666440   1     804  C
   27.79567426   21.52881613   21.75835343   1     805  C
   32.04913288   21.24097372   21.73072032   1     806  C
   36.30145514   20.95483438   21.71707273   1     807  C
   40.55237511   20.66897414   21.72393020   1     808  C
   44.80159906   20.38142777   21.74629163   1     809  C
   49.04991304   20.09188183   21.77160626   1     810  C
   17.24888422   23.48471340   21.81461149   1     811  C
   21.49988638   23.19192734   21.80984935   1     812  C
   25.75241481   22.90016644   21.78307199   1     813  C
   30.00573086   22.61132692   21.74876759   1     814  C
   34.25831564   22.32487941   21.72393034   1     815  C
   38.50997588   22.03937610   21.72039530   1     816  C
   42.76007846   21.75332564   21.73838535   1     817  C
   47.00898245   21.46479919   21.76801503   1     818  C
   19.45808403   24.56531219   21.82889756   1     819  C
   23.71000965   24.27243130   21.80999994   1     820  C
   27.96269793   23.98181814   21.77348689   1     821  C
   32.21538880   23.69463145   21.73838519   1     822  C
   36.46729659   23.40928396   21.72182360   1     823  C
   40.71827785   23.12413626   21.73072083   1     824  C
   44.96796996   22.83720177   21.75956296   1     825  C
   49.21669331   22.54754276   21.79366293   1     826  C
   17.41710547   25.93949811   21.83956771   1     827  C
   21.66811470   25.64546090   21.83413829   1     828  C
   25.92047066   25.35329991   21.80142856   1     829  C
   30.17277975   25.06478405   21.75956309   1     830  C
   34.42492392   24.77895118   21.73075203   1     831  C
   38.67623038   24.49408360   21.72661320   1     832  C
   42.92673929   24.20859727   21.74876801   1     833  C
   47.17582078   23.92039358   21.78620898   1     834  C
   51.42519121   23.62893795   21.81917238   1     835  C
   19.62694414   27.01940452   21.85052726   1     836  C
   23.87871787   26.72568565   21.82903282   1     837  C
   28.13078289   26.43524170   21.78620900   1     838  C
   32.38272658   26.14859302   21.74629127   1     839  C
   36.63436722   25.86365065   21.72840778   1     840  C
   40.88529486   25.57900875   21.73869564   1     841  C
   45.13513644   25.29266989   21.77348710   1     842  C
   49.38452041   25.00268142   21.81443230   1     843  C
   21.83748238   28.09922016   21.85080694   1     844  C
   26.08914407   27.80688732   21.81443245   1     845  C
   30.34080821   27.51855472   21.76801491   1     846  C
   34.59254279   27.23310316   21.73651184   1     847  C
   38.84378979   26.94876624   21.73298356   1     848  C
   43.09428645   26.66381775   21.75835414   1     849  C
   47.34398830   26.37555044   21.80142872   1     850  C
   51.59376409   26.08387853   21.83941909   1     851  C
   19.79693882   29.47363696   21.86303342   1     852  C
   24.04817823   29.17954923   21.83941913   1     853  C
   28.29926918   28.88911621   21.79366306   1     854  C
   32.55082358   28.60251930   21.75156833   1     855  C
   36.80225782   28.31808276   21.73305183   1     856  C
   41.05316615   28.03384773   21.74509744   1     857  C
   45.30354007   27.74765796   21.78307209   1     858  C
   49.55338619   27.45756831   21.82903256   1     859  C
   53.80364666   27.16415804   21.85667728   1     860  C
   22.00768678   30.55322484   21.85667728   1     861  C
   26.25850565   30.26103230   21.81917209   1     862  C
   30.50932469   29.97251217   21.77160579   1     863  C
   34.76044108   29.68734236   21.73930852   1     864  C
   39.01177783   29.40338977   21.73640703   1     865  C
   43.26270043   29.11840843   21.76400577   1     866  C
   47.51315745   28.83029970   21.80999932   1     867  C
   51.76351970   28.53856198   21.85080689   1     868  C

siesta: Program's energy decomposition (eV):
siesta: Ebs     =    -46066.700191
siesta: Eions   =    244916.362311
siesta: Ena     =     54081.624416
siesta: Ekin    =     98649.945789
siesta: Enl     =     -5004.958156
siesta: Eso     =         0.000000
siesta: Edftu   =         0.000000
siesta: DEna    =      5685.045305
siesta: DUscf   =       289.151869
siesta: DUext   =         0.000000
siesta: Ex      =    -46298.504918
siesta: Ec      =     -4402.339199
siesta: Exc     =    -50700.844117
siesta: EbV     =         0.000000
siesta: eta*DQ  =         0.000000
siesta: Emadel  =         0.000000
siesta: Emeta   =         0.000000
siesta: Emolmec =         0.000000
siesta: Ekinion =         0.000000
siesta: Eharris =   -142001.034402
siesta: Etot    =   -142001.037757
siesta: FreeEng =   -142001.037757

siesta: Final energy (eV):
siesta:  Band Struct. =  -46066.700191
siesta:       Kinetic =   98649.945789
siesta:       Hartree = 2297280.343599
siesta:         Edftu =       0.000000
siesta:       Eso     =       0.000000
siesta:    Ext. field =       0.000000
siesta:         Exch. =  -46298.504918
siesta:         Corr. =   -4402.339199
siesta:     Bulk bias =       0.000000
siesta:   Exch.-corr. =  -50700.844117
siesta:  Ion-electron =-4683846.761198
siesta:       Ion-ion = 2196700.918722
siesta:       Ekinion =       0.000000
siesta: D3 dispersion =     -84.640551
siesta:         Total = -142001.037757
siesta:         Fermi =      -3.957278

siesta: Stress tensor (static) (eV/Ang**3):
siesta:    -0.016266    0.000005    0.000000
siesta:     0.000005   -0.016272   -0.000000
siesta:     0.000000   -0.000000   -0.002501

siesta: Cell volume =      45490.485415 Ang**3

siesta: Pressure (static):
siesta:                Solid            Molecule  Units
siesta:           0.00012721          0.00012753  Ry/Bohr**3
siesta:           0.01167981          0.01170916  eV/Ang**3
siesta:          18.71311936         18.76015041  kBar
(Free)E+ p_basis*V_orbitals  =     -141477.941054
(Free)Eharris+ p_basis*V_orbitals  =     -141477.937699

siesta: Electric dipole (a.u.)  =    0.000000    0.000000    0.000000
siesta: Electric dipole (Debye) =    0.000000    0.000000    0.000000

cite: Please see "Graphene.bib" for an exhaustive BiBTeX file.
cite: Please clearly indicate Siesta version in published work: 5.0.0-alpha-112-g6e4f53aee-dirty
cite: This calculation has made use of the following articles
cite: which are encouraged to be cited in a published work.
        Primary SIESTA paper
          DOI: www.doi.org/10.1088/0953-8984/14/11/302
 
 
>> End of run:   1-DEC-2024   8:09:18
Job completed
