SystemName     Graphene                                                                        
SystemLabel     Graphene                                                                        
MPI.Nprocs.SIESTA        32     # default value
SpinPolarized              F     # default value
NonCollinearSpin              F     # default value
SpinOrbit              F     # default value
#:block? SpinPolarized              F
#:defined? SpinPolarized              F
#:block? NonCollinearSpin              F
#:defined? NonCollinearSpin              F
#:block? SpinOrbit              F
#:defined? SpinOrbit              F
Spin     non-polarized                                                                   
TimeReversalSymmetry              T     # default value
DebugObjects.Node         0     # default value
DebugObjects              F     # default value
XML.Write              F     # default value
timer_report_threshold          0.000000000         # default value
UseParallelTimer              T     # default value
UseTreeTimer              F     # default value
timing-split-scf-steps              F     # default value
use-walltime              F     # default value
alloc_report_level         0     # default value
alloc_report_threshold          0.000000000         # default value
xc.functional     GGA                                                                             
xc.authors     PBE                                                                             
#:block? XC.hybrid              F
#:defined? XC.hybrid              F
#:block? XC.cocktail              F
#:defined? XC.cocktail              F
MM.Cutoff          30.00000000     Bohr     # default value
MM.UnitsEnergy     eV     # default value
MM.UnitsDistance     Ang     # default value
Atom.Debug              F     # default value
WriteIonPlotFiles              F     # default value
Atom.Debug.KB.Generation              F     # default value
KB.New.Reference.Orbitals              F     # default value
user-basis              F     # default value
user-basis-netcdf              F     # default value
#:block? DFTU.proj              F
#:defined? DFTU.proj              F
#:block? LDAU.proj              F
#:defined? LDAU.proj              F
Number_of_species              1
%block Chemical_species_label
 1  6   C
%endblock Chemical_species_label
ReparametrizePseudos              F     # default value
Restricted.Radial.Grid              T     # default value
Rmax.Radial.Grid          0.000000000         # default value
PAO.BasisSize     standard            # default value
PAO.BasisType     split          # default value
PAO.SoftDefault              F     # default value
PAO.SoftInnerRadius         0.9000000000         # default value
PAO.SoftPotential          40.00000000         # default value
PAO.SplitNorm         0.1500000000         # default value
PAO.SplitNormH         -1.000000000         # default value
PAO.Polarization.NonPerturbative              F     # default value
PAO.NonPerturbative.Polarization.Orbitals              F     # default value
PAO.Polarization.NonPerturbative.Fallback              F     # default value
%block PAO.Basis
 C    3      0.99941
  n=2   0   1   E   132.56520     4.52564
      6.00093
      1.00000
  n=2   1   1   E     6.06390     6.06460
      6.71080
      1.00000
  n=3   2   1   E    14.47828     4.32078
      6.22538
      1.00000
%endblock PAO.Basis
LDAU.ProjectorGenerationMethod         2     # default value
DFTU.ProjectorGenerationMethod         2     # default value
LDAU.EnergyShift         0.5000000000E-01 Ry     # default value
DFTU.EnergyShift         0.5000000000E-01 Ry     # default value
LDAU.CutoffNorm         0.9000000000         # default value
DFTU.CutoffNorm         0.9000000000         # default value
PAO.SoftDefault              F     # default value
PAO.SoftInnerRadius         0.9000000000         # default value
PAO.SoftPotential          40.00000000         # default value
LDAU.ThresholdTol         0.1000000000E-01     # default value
DFTU.ThresholdTol         0.1000000000E-01     # default value
LDAU.PopTol         0.1000000000E-02     # default value
DFTU.PopTol         0.1000000000E-02     # default value
LDAU.PotentialShift              F     # default value
DFTU.PotentialShift              F     # default value
LDAU.FirstIteration              F     # default value
DFTU.FirstIteration              F     # default value
FilterCutoff          0.000000000     Ry     # default value
FilterTol          0.000000000     Ry     # default value
spin-orbit-strength          1.000000000         # default value
Use.PSML.KB.Projectors              T     # default value
Use.PSML.Vlocal              T     # default value
PSML.KB.Projectors              T     # default value
PSML.Vlocal              T     # default value
psml.chlocal.build.r0         0.4000000000E-02     # default value
psml.chlocal.build.delta         0.5000000000E-02     # default value
psml.chlocal.build.poly_order_rlin         4     # default value
chlocal-use-charge-cutoff-for-vlocal-fit              F     # default value
psml.chlocal.build.rr1         0.1000000000E-02     # default value
psml.chlocal.build.exp_al          1.012000000         # default value
psml.chlocal.build.poly_order_rofi         7     # default value
PAO.EnergyShift         0.2000000000E-01 Ry     # default value
PAO.SplitTailNorm              F     # default value
PAO.FixSplitTable              F     # default value
PAO.NewSplitCode              F     # default value
PAO.Filter              F     # default value
PAO.Filter              F     # default value
PAO.Filter              F     # default value
PAO.OldStylePolorbs              T     # default value
PAO.SplitTailNorm              F     # default value
PAO.FixSplitTable              F     # default value
PAO.NewSplitCode              F     # default value
Vna.Filter              F     # default value
PCC.Filter              F     # default value
PAO.BasisType     split          # default value
Debug.Elec.Corr              F     # default value
Atom-Setup-Only              F     # default value
UseStructFile              F     # default value
MD.UseStructFile              F     # default value
#:block? LatticeParameters              F
#:block? LatticeVectors              T
%block LatticeVectors
LatticeConstant          1.889726125           Bohr
# above item originally: LatticeConstant          1.000000000     Ang       
      14.9129574532  -1.2300000000   0.0000000000
       8.5216899732  12.3000000000   0.0000000000
       0.0000000000   0.0000000000  40.0000000000
%endblock LatticeVectors
AtomicCoordinatesFormat     Ang                                                                             
NumberOfAtoms            148
#:block? AtomicCoordinatesOrigin              F
#:defined? AtomicCoordinatesOrigin              F
ZM.UnitsLength     Bohr           # default value
ZM.UnitsAngle     rad            # default value
ZM.ForceTolLength         0.1555740000E-02 Ry/Bohr     # default value
ZM.ForceTolAngle         0.3565490000E-02 Ry/rad     # default value
ZM.MaxDisplLength         0.2000000000     Bohr     # default value
ZM.MaxDisplAngle         0.3000000000E-02 rad     # default value
ZM.CalcAllForces              F     # default value
%block AtomicCoordinatesAndAtomicSpecies
       1.4202816622	   0.0000000000	  18.3250000000	 1
       5.6811266488	   0.0000000000	  18.3250000000	 1
       9.9419716354	   0.0000000000	  18.3250000000	 1
      14.2028166221	   0.0000000000	  18.3250000000	 1
       3.5507041555	   1.2300000000	  18.3250000000	 1
       7.8115491421	   1.2300000000	  18.3250000000	 1
      12.0723941288	   1.2300000000	  18.3250000000	 1
      16.3332391154	   1.2300000000	  18.3250000000	 1
       5.6811266488	   2.4600000000	  18.3250000000	 1
       9.9419716354	   2.4600000000	  18.3250000000	 1
      14.2028166221	   2.4600000000	  18.3250000000	 1
       3.5507041555	   3.6900000000	  18.3250000000	 1
       7.8115491421	   3.6900000000	  18.3250000000	 1
      12.0723941288	   3.6900000000	  18.3250000000	 1
      16.3332391154	   3.6900000000	  18.3250000000	 1
       5.6811266488	   4.9200000000	  18.3250000000	 1
       9.9419716354	   4.9200000000	  18.3250000000	 1
      14.2028166221	   4.9200000000	  18.3250000000	 1
      18.4636616087	   4.9200000000	  18.3250000000	 1
       7.8115491421	   6.1500000000	  18.3250000000	 1
      12.0723941288	   6.1500000000	  18.3250000000	 1
      16.3332391154	   6.1500000000	  18.3250000000	 1
       5.6811266488	   7.3800000000	  18.3250000000	 1
       9.9419716354	   7.3800000000	  18.3250000000	 1
      14.2028166221	   7.3800000000	  18.3250000000	 1
      18.4636616087	   7.3800000000	  18.3250000000	 1
       7.8115491421	   8.6100000000	  18.3250000000	 1
      12.0723941288	   8.6100000000	  18.3250000000	 1
      16.3332391154	   8.6100000000	  18.3250000000	 1
      20.5940841020	   8.6100000000	  18.3250000000	 1
       9.9419716354	   9.8400000000	  18.3250000000	 1
      14.2028166221	   9.8400000000	  18.3250000000	 1
      18.4636616087	   9.8400000000	  18.3250000000	 1
       7.8115491421	  11.0700000000	  18.3250000000	 1
      12.0723941288	  11.0700000000	  18.3250000000	 1
      16.3332391154	  11.0700000000	  18.3250000000	 1
      20.5940841020	  11.0700000000	  18.3250000000	 1
       2.8405633244	   0.0000000000	  18.3250000000	 1
       7.1014083110	   0.0000000000	  18.3250000000	 1
      11.3622532977	   0.0000000000	  18.3250000000	 1
      15.6230982843	   0.0000000000	  18.3250000000	 1
       4.9709858177	   1.2300000000	  18.3250000000	 1
       9.2318308043	   1.2300000000	  18.3250000000	 1
      13.4926757910	   1.2300000000	  18.3250000000	 1
       2.8405633244	   2.4600000000	  18.3250000000	 1
       7.1014083110	   2.4600000000	  18.3250000000	 1
      11.3622532977	   2.4600000000	  18.3250000000	 1
      15.6230982843	   2.4600000000	  18.3250000000	 1
       4.9709858177	   3.6900000000	  18.3250000000	 1
       9.2318308043	   3.6900000000	  18.3250000000	 1
      13.4926757910	   3.6900000000	  18.3250000000	 1
      17.7535207776	   3.6900000000	  18.3250000000	 1
       7.1014083110	   4.9200000000	  18.3250000000	 1
      11.3622532977	   4.9200000000	  18.3250000000	 1
      15.6230982843	   4.9200000000	  18.3250000000	 1
       4.9709858177	   6.1500000000	  18.3250000000	 1
       9.2318308043	   6.1500000000	  18.3250000000	 1
      13.4926757910	   6.1500000000	  18.3250000000	 1
      17.7535207776	   6.1500000000	  18.3250000000	 1
       7.1014083110	   7.3800000000	  18.3250000000	 1
      11.3622532977	   7.3800000000	  18.3250000000	 1
      15.6230982843	   7.3800000000	  18.3250000000	 1
      19.8839432709	   7.3800000000	  18.3250000000	 1
       9.2318308043	   8.6100000000	  18.3250000000	 1
      13.4926757910	   8.6100000000	  18.3250000000	 1
      17.7535207776	   8.6100000000	  18.3250000000	 1
       7.1014083110	   9.8400000000	  18.3250000000	 1
      11.3622532977	   9.8400000000	  18.3250000000	 1
      15.6230982843	   9.8400000000	  18.3250000000	 1
      19.8839432709	   9.8400000000	  18.3250000000	 1
       9.2318308043	  11.0700000000	  18.3250000000	 1
      13.4926757910	  11.0700000000	  18.3250000000	 1
      17.7535207776	  11.0700000000	  18.3250000000	 1
      22.0143657642	  11.0700000000	  18.3250000000	 1
       3.7042481190	   0.6316216216	  21.6750000000	 1
       7.9075141193	  -0.0664864865	  21.6750000000	 1
      12.1107801196	  -0.7645945946	  21.6750000000	 1
       1.8041415709	   2.1940540541	  21.6750000000	 1
       6.0074075712	   1.4959459459	  21.6750000000	 1
      10.2106735715	   0.7978378378	  21.6750000000	 1
      14.4139395719	   0.0997297297	  21.6750000000	 1
       4.1073010231	   3.0583783784	  21.6750000000	 1
       8.3105670235	   2.3602702703	  21.6750000000	 1
      12.5138330238	   1.6621621622	  21.6750000000	 1
       6.4104604754	   3.9227027027	  21.6750000000	 1
      10.6137264757	   3.2245945946	  21.6750000000	 1
      14.8169924760	   2.5264864865	  21.6750000000	 1
       4.5103539273	   5.4851351351	  21.6750000000	 1
       8.7136199276	   4.7870270270	  21.6750000000	 1
      12.9168859279	   4.0889189189	  21.6750000000	 1
      17.1201519282	   3.3908108108	  21.6750000000	 1
       6.8135133795	   6.3494594595	  21.6750000000	 1
      11.0167793798	   5.6513513514	  21.6750000000	 1
      15.2200453801	   4.9532432432	  21.6750000000	 1
       9.1166728317	   7.2137837838	  21.6750000000	 1
      13.3199388320	   6.5156756757	  21.6750000000	 1
      17.5232048324	   5.8175675676	  21.6750000000	 1
       7.2165662836	   8.7762162162	  21.6750000000	 1
      11.4198322840	   8.0781081081	  21.6750000000	 1
      15.6230982843	   7.3800000000	  21.6750000000	 1
      19.8263642846	   6.6818918919	  21.6750000000	 1
       9.5197257359	   9.6405405405	  21.6750000000	 1
      13.7229917362	   8.9424324324	  21.6750000000	 1
      17.9262577365	   8.2443243243	  21.6750000000	 1
      11.8228851881	  10.5048648649	  21.6750000000	 1
      16.0261511884	   9.8067567568	  21.6750000000	 1
      20.2294171887	   9.1086486486	  21.6750000000	 1
       9.9227786400	  12.0672972973	  21.6750000000	 1
      14.1260446403	  11.3691891892	  21.6750000000	 1
      18.3293106406	  10.6710810811	  21.6750000000	 1
      22.5325766410	   9.9729729730	  21.6750000000	 1
       0.9020707855	   1.0970270270	  21.6750000000	 1
       5.1053367858	   0.3989189189	  21.6750000000	 1
       9.3086027861	  -0.2991891892	  21.6750000000	 1
      13.5118687864	  -0.9972972973	  21.6750000000	 1
       3.2052302377	   1.9613513514	  21.6750000000	 1
       7.4084962380	   1.2632432432	  21.6750000000	 1
      11.6117622383	   0.5651351351	  21.6750000000	 1
       5.5083896899	   2.8256756757	  21.6750000000	 1
       9.7116556902	   2.1275675676	  21.6750000000	 1
      13.9149216905	   1.4294594595	  21.6750000000	 1
       3.6082831418	   4.3881081081	  21.6750000000	 1
       7.8115491421	   3.6900000000	  21.6750000000	 1
      12.0148151424	   2.9918918919	  21.6750000000	 1
      16.2180811428	   2.2937837838	  21.6750000000	 1
       5.9114425940	   5.2524324324	  21.6750000000	 1
      10.1147085944	   4.5543243243	  21.6750000000	 1
      14.3179745947	   3.8562162162	  21.6750000000	 1
       8.2146020463	   6.1167567568	  21.6750000000	 1
      12.4178680466	   5.4186486486	  21.6750000000	 1
      16.6211340469	   4.7205405405	  21.6750000000	 1
       6.3144954982	   7.6791891892	  21.6750000000	 1
      10.5177614985	   6.9810810811	  21.6750000000	 1
      14.7210274988	   6.2829729730	  21.6750000000	 1
      18.9242934991	   5.5848648649	  21.6750000000	 1
       8.6176549504	   8.5435135135	  21.6750000000	 1
      12.8209209507	   7.8454054054	  21.6750000000	 1
      17.0241869510	   7.1472972973	  21.6750000000	 1
      10.9208144026	   9.4078378378	  21.6750000000	 1
      15.1240804030	   8.7097297297	  21.6750000000	 1
      19.3273464033	   8.0116216216	  21.6750000000	 1
       9.0207078546	  10.9702702703	  21.6750000000	 1
      13.2239738549	  10.2721621622	  21.6750000000	 1
      17.4272398552	   9.5740540541	  21.6750000000	 1
      21.6305058555	   8.8759459459	  21.6750000000	 1
      11.3238673068	  11.8345945946	  21.6750000000	 1
      15.5271333071	  11.1364864865	  21.6750000000	 1
      19.7303993074	  10.4383783784	  21.6750000000	 1
%endblock AtomicCoordinatesAndAtomicSpecies
MD.UseSaveXV              T
MD.UseSaveZM              F     # default value
WriteCoorInitial              T     # default value
MD.TypeOfRun     CG                                                                              
MD.TypeOfRun     CG                                                                              
MD.InitialTimeStep         1     # default value
MD.FinalTimeStep         1     # default value
MD.TypeOfRun     CG                                                                              
MaxBondDistance          6.000000000     Bohr     # default value
Output-Structure-Only              F     # default value
WriteCoorXmol              F     # default value
#:physical? MaxWalltime              F
MaxWalltime         0.1797693135+309     # default value
#:physical? MaxWalltime.Slack              F
MaxWalltime.Slack          5.000000000         # default value
HSetupOnly              F     # default value
LongOutput              F     # default value
WriteDenchar              F     # default value
WriteMullikenPop         0     # default value
WriteOrbMom              F     # default value
WriteHirshfeldPop              F     # default value
WriteVoronoiPop              F     # default value
PartialChargesAtEveryGeometry              F     # default value
PartialChargesAtEveryScfStep              F     # default value
MeshCutoff          300.0000000             Ry
# above item originally: MeshCutoff          300.0000000     Ry        
NetCharge          0.000000000         # default value
MinSCFIterations              3
MaxSCFIterations            300
SCF.MustConverge              T     # default value
#:block? TS.MixH              F
#:defined? TS.MixH              F
#:block? MixHamiltonian              F
#:defined? MixHamiltonian              F
#:block? MixCharge              F
#:defined? MixCharge              F
TS.MixH              T     # default value
MixHamiltonian              T     # default value
MixCharge              F     # default value
SCF.Mix     Hamiltonian     # default value
Compat-pre-v4-DM-H              F     # default value
SCF.MixAfterConvergence              F     # default value
SCF.Recompute-H-After-Scf              F     # default value
DM.NumberPulay         0     # default value
DM.NumberBroyden         0     # default value
DM.FIRE.Mixing              F     # default value
DM.MixSCF1              T     # default value
SCF.Mix.First              T
SCF.Mix.First.Force              F     # default value
DM.PulayOnFile              F     # default value
DM.MixingWeight         0.2500000000         # default value
DM.OccupancyTolerance         0.1000000000E-11     # default value
DM.NumberKick         0     # default value
DM.KickMixingWeight         0.5000000000         # default value
DM.RequireHarrisConvergence              F     # default value
SCF.Harris.Converge              F     # default value
DM.HarrisTolerance         0.7349864435E-05 Ry     # default value
SCF.Harris.Tolerance         0.7349864435E-05 Ry     # default value
SCF.DM.Converge              T     # default value
DM.Tolerance         0.1000000000E-03     # default value
SCF.DM.Tolerance         0.1000000000E-03
SCF.EDM.Converge              F     # default value
SCF.EDM.Tolerance         0.7349864435E-04 Ry     # default value
SCF.H.Converge              T     # default value
SCF.H.Tolerance         0.7349864435E-04 Ry     # default value
DM.RequireEnergyConvergence              F     # default value
SCF.FreeE.Converge              F     # default value
DM.EnergyTolerance         0.7349864435E-05 Ry     # default value
SCF.FreeE.Tolerance         0.7349864435E-05 Ry     # default value
MonitorForcesInSCF              F     # default value
SCF.MonitorForces              F     # default value
DFTD3              T
UseSaveData              F     # default value
DM.UseSaveDM              T
NeglNonOverlapInt              F     # default value
SolutionMethod     diagon                                                                          
ElectronicTemperature         0.1900000000E-02 Ry     # default value
FixSpin              F     # default value
Spin.Fix              F     # default value
ON.MaxNumIter      1000     # default value
ON.etol         0.1000000000E-07     # default value
ON.eta          0.000000000     Ry     # default value
ON.eta_alpha          0.000000000     Ry     # default value
ON.eta_beta          0.000000000     Ry     # default value
On.RcLWF          9.500000000     Bohr     # default value
ON.UseSaveLWF              F     # default value
ON.functional     kim     # default value
ON.ChemicalPotentialUse              F     # default value
ON.ChemicalPotential              F     # default value
ON.ChemicalPotentialRc          9.500000000     Bohr     # default value
ON.ChemicalPotentialTemperature         0.5000000000E-01 Ry     # default value
ON.ChemicalPotentialOrder       100     # default value
TDED.WF.Initialize              F     # default value
TDED.Saverho              F     # default value
TDED.Nsaverho       100     # default value
TDED.Write.Etot              T     # default value
TDED.Write.Eig              F     # default value
TDED.Write.Dipole              F     # default value
TDED.Extrapolate              F     # default value
TDED.TimeStep         0.1000000000E-02 fs     # default value
TDED.Nsteps         1     # default value
TDED.Extrapolate.Substeps         3     # default value
TDED.Inverse.Linear              T     # default value
TDED.WF.Save              F     # default value
MD.VariableCell              F
compat-pre-v4-dynamics              F     # default value
MD.TypeOfRun     CG                                                                              
MD.UseSaveCG              F     # default value
Optim.Broyden              F     # default value
#:block? Optim.Broyden              F
#:defined? Optim.Broyden              F
MD.NumCGsteps            200
MD.Steps       200     # default value
MD.MaxCGDispl         0.5000000000           Bohr
# above item originally: MD.MaxCGDispl         0.5000000000     Bohr      
MD.MaxDispl         0.5000000000     Bohr     # default value
MD.MaxForceTol         0.3889380762E-04    Ry/Bohr
# above item originally: MD.MaxForceTol         0.1000000000E-02 eV/Ang    
MD.MaxStressTol         0.6797730000E-04 Ry/Bohr**3     # default value
GeometryMustConverge              F     # default value
MD.InitialTimeStep         1     # default value
#:block? MD.Steps              F
#:defined? MD.Steps              F
MD.FinalTimeStep         1     # default value
MD.LengthTimeStep          1.000000000     fs     # default value
MD.Quench              F     # default value
MD.FireQuench              F     # default value
MD.InitialTemperature          0.000000000     K     # default value
MD.TargetTemperature          0.000000000     K     # default value
#:block? MD.TargetPressure              F
#:defined? MD.TargetPressure              F
MD.TargetPressure          0.000000000     Ry/Bohr**3     # default value
Target.Pressure          0.000000000     Ry/Bohr**3     # default value
MD.NoseMass          100.0000000     Ry*fs**2     # default value
MD.ParrinelloRahmanMass          100.0000000     Ry*fs**2     # default value
MD.AnnealOption     TemperatureAndPressure     # default value
MD.TauRelax          100.0000000     fs     # default value
MD.BulkModulus         0.6797730000E-02 Ry/Bohr**3     # default value
MD.FCDispl         0.4000000000E-01 Bohr     # default value
MD.FCfirst         1     # default value
MD.FClast       148     # default value
UseSpatialDecomposition              F     # default value
UseDomainDecomposition              F     # default value
SCF.Mix.Spin     all     # default value
Mixer.Debug              F     # default value
Mixer.Debug.MPI              F     # default value
DM.NumberPulay         2     # default value
DM.NumberBroyden         0     # default value
DM.MixingWeight         0.2500000000         # default value
DM.NumberKick         0     # default value
DM.KickMixingWeight         0.5000000000         # default value
SCF.LinearMixingAfterPulay              F     # default value
SCF.MixingWeightAfterPulay         0.2500000000         # default value
SCF.Mixer.History             12
SCF.Mixer.Weight         0.1000000000    
SCF.Mixer.Kick         0     # default value
SCF.Mixer.Kick.Weight         0.5000000000         # default value
SCF.Mixer.Restart         0     # default value
SCF.Mixer.Restart.Save         1     # default value
SCF.Mixer.Method     Pulay     # default value
SCF.Mixer.Variant     original     # default value
SCF.Mixer.Linear.After        -1     # default value
SCF.Mixer.Linear.After.Weight         0.2500000000         # default value
#:block? ChargeGeometries              F
#:defined? ChargeGeometries              F
#:block? ChargeGeometries              F
#:defined? ChargeGeometries              F
BulkBias.V          0.000000000     Ry     # default value
BulkBias.Voltage          0.000000000     Ry     # default value
BulkBias.Tolerance         0.1000000000E-14     # default value
BulkBias.Current              T     # default value
Harris_functional              F     # default value
ForceAuxCell              F     # default value
#:block? Optim.Broyden.History.Steps              F
#:defined? Optim.Broyden.History.Steps              F
#:block? Optim.Broyden.Cycle.On.Maxit              F
#:defined? Optim.Broyden.Cycle.On.Maxit              F
#:block? Optim.Broyden.Variable.Weight              F
#:defined? Optim.Broyden.Variable.Weight              F
#:block? Optim.Broyden.Debug              F
#:defined? Optim.Broyden.Debug              F
#:block? Optim.Broyden.Initial.Inverse.Jacobian              F
#:defined? Optim.Broyden.Initial.Inverse.Jacobian              F
Write.Kpoints              F     # default value
Write.Forces              F     # default value
Write.DM              T     # default value
Write.DM.End.Of.Cycle              T     # default value
Write.H              F     # default value
Write.H.End.Of.Cycle              F     # default value
Write.DM.NetCDF              F     # default value
WriteDM.History.NetCDF              F     # default value
WriteDMHS.NetCDF              F     # default value
WriteDMHS.History.NetCDF              F     # default value
SCF.Read.Charge.NetCDF              F     # default value
SCF.Read.Deformation.Charge.NetCDF              F     # default value
Write.TSHS.History              F     # default value
SaveInitialChargeDensity              F     # default value
AnalyzeChargeDensityOnly              F     # default value
UseNewDiagk              F     # default value
Diag.WFS.Cache     none     # default value
WriteBands              F     # default value
WriteKbands              F     # default value
WriteEigenvalues              F     # default value
WriteCoorStep              F     # default value
WriteMDhistory              F     # default value
WriteMDXmol              T     # default value
WriteOrbitalIndex              T     # default value
Write.Graphviz     none     # default value
WriteCoorStep              F     # default value
SaveHS              F     # default value
ReInitialiseDM              T     # default value
DM.AllowReuse              T     # default value
DM.AllowExtrapolation              T     # default value
DM.History.Depth         1     # default value
DM.NormalizationTolerance         0.1000000000E-04     # default value
DM.NormalizeDuringSCF              T     # default value
MullikenInSCF              F     # default value
SpinInSCF              F     # default value
WarningMinimumAtomicDistance          1.000000000     Bohr     # default value
BornCharge              F     # default value
ChangeKgridInMD              F     # default value
MD.RelaxCellOnly              F     # default value
MD.RemoveIntraMolecularPressure              F     # default value
COOP.Write              F     # default value
SaveRho              F     # default value
SaveDeltaRho              F     # default value
SaveRhoXC              F     # default value
SaveElectrostaticPotential              F     # default value
SaveNeutralAtomPotential              F     # default value
SaveTotalPotential              F     # default value
SaveIonicCharge              F     # default value
SaveBaderCharge              F     # default value
SaveTotalCharge              F     # default value
Siesta2Wannier90.WriteMmn              F     # default value
Siesta2Wannier90.WriteUnk              F     # default value
Siesta2Wannier90.WriteAmn              F     # default value
Siesta2Wannier90.WriteEig              F     # default value
#:block? Siesta2Wannier90.NumberOfBandsUp              F
#:defined? Siesta2Wannier90.NumberOfBandsUp              F
#:block? Siesta2Wannier90.NumberOfBandsDown              F
#:defined? Siesta2Wannier90.NumberOfBandsDown              F
#:block? Siesta2Wannier90.NumberOfBands              F
#:defined? Siesta2Wannier90.NumberOfBands              F
Siesta2Wannier90.NumberOfBandsUp         0     # default value
Siesta2Wannier90.NumberOfBandsDown         0     # default value
Siesta2Wannier90.NumberOfBands         0     # default value
CDF.Save              F     # default value
CDF.Compress         0     # default value
CDF.MPI              F     # default value
CDF.Read.Parallel              F     # default value
#:block-line-count? Wannier.Manifolds   0
Wannier.Manifolds.R.between              F     # default value
Wannier.Manifold.IndexPerturbed         1     # default value
Wannier.Mmn.Diagonal              F     # default value
DFTD3.BJdamping              T     # default value
DFTD3.UseXCDefaults              T     # default value
DFTD3.s9          1.000000000         # default value
DFTD3.s6          1.000000000         # default value
DFTD3.rs6          1.000000000         # default value
DFTD3.s8          1.000000000         # default value
DFTD3.rs8          1.000000000         # default value
DFTD3.a1         0.4000000000         # default value
DFTD3.a2          5.000000000         # default value
DFTD3.alpha          14.00000000         # default value
DFTD3.s9          1.000000000         # default value
DFTD3.CoordinationCutoff          10.00000000     Bohr     # default value
DFTD3.2BodyCutoff          60.00000000     Bohr     # default value
DFTD3.3BodyCutoff          40.00000000     Bohr     # default value
DM.AllowReuse              T     # default value
DM.AllowExtrapolation              T     # default value
DM.AllowExtrapolation              F     # default value
NumberOfEigenStates      1332     # default value
RcSpatial          0.000000000     Bohr     # default value
ProcessorGridX         1     # default value
ProcessorGridY         1     # default value
ProcessorGridZ         1     # default value
FFT.ProcessorY.traditional              F     # default value
processorY         4     # default value
blocksize        42     # default value
Spin.Spiral              F     # default value
TimeReversalSymmetryForKpoints              T     # default value
%block kgrid.MonkhorstPack
    1  0  0  0.0
    0  1  0  0.0
    0  0  1  0.0
%endblock kgrid.MonkhorstPack
#:block? ProjectedDensityOfStates              F
#:block? LocalDensityOfStates              F
Diag.ProcessorY         4     # default value
Diag.BlockSize        42     # default value
Diag.Use2D              T     # default value
Diag.UpperLower     lower     # default value
Diag.DivideAndConquer              T     # default value
Diag.MRRR              F     # default value
Diag.NoExpert              F     # default value
Diag.Algorithm     Divide-and-Conquer     # default value
Diag.AbsTol         0.1000000000E-15     # default value
Diag.OrFac         0.1000000000E-05     # default value
Diag.Memory          1.000000000         # default value
#:block? BandLines              F
#:defined? BandLines              F
#:block? BandPoints              F
#:defined? BandPoints              F
LongOutput              F     # default value
WriteWaveFunctions              F     # default value
#:block-line-count? MetaForce (iirrr)   0
%block Geometry.Constraints
  center all 0.0 0.0 1.0
%endblock Geometry.Constraints
%block Geometry.Constraints
  center all 0.0 0.0 1.0
%endblock Geometry.Constraints
#:block? TS.BufferAtomsLeft              F
#:defined? TS.BufferAtomsLeft              F
#:block? TS.BufferAtomsRight              F
#:defined? TS.BufferAtomsRight              F
#:list? TS.Atoms.Buffer              F
TS.HS.Save              F     # default value
TS.DE.Save              F     # default value
TS.onlyS              F     # default value
TS.S.Save              F     # default value
Spin.Spiral              F     # default value
TimeReversalSymmetryForKpoints              T     # default value
#:list? TS.kgrid.MonkhorstPack                                                                                                                                                                                                                                                        F
#:block? TS.kgrid.Cutoff                                                                                                                                                                                                                                                               F
#:defined? TS.kgrid.Cutoff                                                                                                                                                                                                                                                               F
#:block? TS.kgrid.File                                                                                                                                                                                                                                                                 F
#:defined? TS.kgrid.File                                                                                                                                                                                                                                                                 F
AtomicCoordinatesFormat     Ang                                                                             
AtomCoorFormatOut     Ang                        # default value
LatticeConstant          1.889726125           Bohr
# above item originally: LatticeConstant          1.000000000     Ang       
debug-folding              F     # default value
Save.Overlap.Gradient              F     # default value
Sonly              F     # default value
File.DM.Init     Graphene.DM     # default value
DM.Init     atomic     # default value
DM.Init.RandomStates         0     # default value
Sonly              F     # default value
Debug.DHSCF              F     # default value
MeshSubDivisions         2     # default value
#:list? Mesh.Sizes              F
#:defined? MeshCutoff              T
#:block? MeshSizes              F
#:defined? MeshSizes              F
#:defined? MeshCutoff              T
XC.Use.BSC.CellXC              F     # default value
PROCS_PER_NODE         4     # default value
PROCS_PER_NODE         4     # default value
DirectPhi              F     # default value
SimulateDoping              F     # default value
Slab.DipoleCorrection     none     # default value
Read-H-from-file              F     # default value
timing-split-scf-steps              F     # default value
SingleExcitation              F     # default value
OccupationFunction     FD     # default value
OccupationFunction     FD     # default value
timing-split-scf-steps              F     # default value
timing-split-scf-steps              F     # default value
timing-split-scf-steps              F     # default value
timing-split-scf-steps              F     # default value
timing-split-scf-steps              F     # default value
timing-split-scf-steps              F     # default value
timing-split-scf-steps              F     # default value
timing-split-scf-steps              F     # default value
timing-split-scf-steps              F     # default value
compute-forces              T     # default value
#:list? Grid.CellSampling              F
#:list? DFTD3.Periodic              F
debug-folding              F     # default value
Save.Overlap.Gradient              F     # default value
Sonly              F     # default value
UseDIISforDMExtrapolation              T     # default value
UseSVDExperimental              F     # default value
UseSVD              T     # default value
Sonly              F     # default value
#:list? Mesh.Sizes              F
#:defined? MeshCutoff              T
#:block? MeshSizes              F
#:defined? MeshSizes              F
#:defined? MeshCutoff              T
XC.Use.BSC.CellXC              F     # default value
PROCS_PER_NODE         4     # default value
PROCS_PER_NODE         4     # default value
Read-H-from-file              F     # default value
timing-split-scf-steps              F     # default value
timing-split-scf-steps              F     # default value
timing-split-scf-steps              F     # default value
timing-split-scf-steps              F     # default value
timing-split-scf-steps              F     # default value
timing-split-scf-steps              F     # default value
