Siesta Version  : 5.0.0-alpha-112-g6e4f53aee-dirty
Architecture    : ----
Compiler version: Intel-2021.8.0.20221119
Compiler flags  : -O2 -ip -xHost -fp-model=strict -prec-div -prec-sqrt
PP flags        : ----
Libraries       : ----
Parallelisations: MPI
GEMM3M support
NetCDF support
NetCDF-4 support

Runtime information:
* Directory : /n/holylabs/LABS/kaxiras_lab/axzhu/projects/AM207-final-project/N_8/PSO_z
* Running on 64 nodes in parallel.
>> Start of run:   1-DEC-2024  15:41:19

                           *********************** 
                           *  WELCOME TO SIESTA  * 
                           *********************** 

reinit: Reading from standard input
reinit: Dumping input in INPUT_TMP.98479
************************** Dump of input data file ****************************
#################################
#				#
#	Basic Information	#
#	      			#
#################################
SystemName      Graphene
SystemLabel     Graphene
#########################################
#					#
#	Structural Information		#
#					#
#########################################
%include structure.fdf
#################################
#                               #
#       DFT Parameters          #
#                               #
#################################
SolutionMethod diagon           # Method of solving system. Can change to OrderN, transiesta, etc.
#Diag.Algorithm MRRR
#NumberOfEigenStates -20 # this will include first 10 conduction bands
XC.Functional   GGA
XC.Authors      PBE
DFTD3 true
Spin non-polarized
# This is causing memory issues, keep it low for now.
Mesh.Cutoff 300 Ry              # Cut off plane waves with kinetic energy higher than this.
MaxSCFIterations 300            # Max number of iterations in the SCF loop.
DM.UseSaveDM true
MinSCFIterations       3
SCF.DM.Tolerance       0.0001
SCF.Mixer.Weight       0.10
SCF.Mixer.History      12
SCF.Mix.First          true
#################################
#                               #
#             Basis             #
#                               #
#################################
#PAO.BasisSize   DZP
PAO.Basis < basis.fdf
#########################################
#					#
#	k-points, Bands, DOS		#
#		  	 		#
#########################################
%block kgrid_Monkhorst_Pack
   1  0  0  0.0
   0  1  0  0.0
   0  0  1  0.0
%endblock kgrid_Monkhorst_Pack
#BandLinesScale ReciprocalLatticeVectors
#%block BandLines
#1   0.6666666667  0.3333333333  0.0000000000  K
#10  0.0000000000  0.0000000000  0.0000000000  Gamma
#10  0.5000000000  0.0000000000  0.0000000000  M
#10  0.6666666667  0.3333333333  0.0000000000  K
#%endblock BandLines
# Local density of states (LDOS)
# %block LocalDensityOfStates
# EF 8.40 8.50 eV
# %endblock LocalDensityOfStates
#########################################
#                                       #
#             Wavefunctions             #
#                                       #
#########################################
#WaveFuncKPointsScale ReciprocalLatticeVectors
#%block WaveFuncKPoints
#0.666 0.333 0.000 from 4375 to 4378 # K wavefuncs 4375 to 4378
#0.000 0.000 0.000 from 4375 to 4378 # Gamma wavefuncs 4375 to 4378
#0.500 0.000 0.000 from 4375 to 4378 # M wavefuncs 4375 to 4378
#%endblock WaveFuncKPoints
#WriteDenchar T
#########################################
#                                       #
#       Geometry Optimisation           #
#                                       #
#########################################
MD.UseSaveXV true
MD.TypeOfRun           CG                  # Conjugate Gradient
MD.NumCGsteps          200                 # Max number of steps
MD.MaxForceTol         0.01    eV/Ang      # 10 meV/Ang
MD.VariableCell        false               # Don't relax cell
MD.MaxCGDispl          0.5 Bohr            # Maximum displacement of any atom
# Fix COM in Z direction only
%block Geometry.Constraints
 center all 0.0 0.0 1.0
%endblock Geometry.Constraints
************************** End of input data file *****************************

reinit: -----------------------------------------------------------------------
reinit: System Name: Graphene
reinit: -----------------------------------------------------------------------
reinit: System Label: Graphene
reinit: -----------------------------------------------------------------------

initatom: Reading input for the pseudopotentials and atomic orbitals ----------
Species number:   1 Atomic number:    6 Label: C
 

---- Processing specs for species: C
Ground state valence configuration:   2s02  2p02
Reading pseudopotential information in PSML from:
  C.psml
PSML file version: 1.1
Using libxc ids:  101 130
GGA--PBE XC_GGA_X_PBE--XC_GGA_C_PBE pb
 Using ATOM defaults for log grid...
PSML uuid: 297821e0-be41-11e7-6802-e1ff7dfff095

---- Pseudopotential check for C 

Pseudized shells:
2s( 2.00) rc: 1.20
2p( 2.00) rc: 1.26
Valence configuration for ps generation: 2s:2p: Total charge:   4.000000
For C, standard SIESTA heuristics set lmxkb to 3
 (one more than the basis l, including polarization orbitals).
Use PS.lmax or PS.KBprojectors blocks to override.
C pseudopotential only contains V_ls up to l=1 -- lmxkb reset.

<basis_specs>
===============================================================================
C                    Z=   6    Mass=  12.011        Charge= 0.99941    
Lmxo=2 Lmxkb= 1    BasisType=split      Semic=F
L=0  Nsemic=0  Cnfigmx=2
          i=1  nzeta=1  polorb=0  (2s)
            splnorm:   0.15000    
               vcte:    132.57    
               rinn:    4.5256    
               qcoe:    0.0000    
               qyuk:    0.0000    
               qwid:   0.10000E-01
                rcs:    6.0009    
            lambdas:    1.0000    
L=1  Nsemic=0  Cnfigmx=2
          i=1  nzeta=1  polorb=0  (2p)
            splnorm:   0.15000    
               vcte:    6.0639    
               rinn:    6.0646    
               qcoe:    0.0000    
               qyuk:    0.0000    
               qwid:   0.10000E-01
                rcs:    6.7108    
            lambdas:    1.0000    
L=2  Nsemic=0  Cnfigmx=3
          i=1  nzeta=1  polorb=0  (3d)
            splnorm:   0.15000    
               vcte:    14.478    
               rinn:    4.3208    
               qcoe:    0.0000    
               qyuk:    0.0000    
               qwid:   0.10000E-01
                rcs:    6.2254    
            lambdas:    1.0000    
-------------------------------------------------------------------------------
L=0  Nkbl=1  erefs: 0.17977+309
L=1  Nkbl=1  erefs: 0.17977+309
===============================================================================
</basis_specs>

atom: Called for C                     (Z =   6)
NOTE: C pseudopotential has channels up to l= 1
NOTE: PAOs with higher l will be generated with V_local

read_vps: Pseudopotential generation method:
read_vps: ONCVPSP-3.Hamann's oncvpsp                        
Valence charge in pseudo generation:    4.00000

read_vps: Pseudopotential includes a core correction:
read_vps: Pseudo-core for xc-correction

xc_check: Exchange-correlation functional:
xc_check: GGA Perdew, Burke & Ernzerhof 1996
Got Vlocal (oncv-fit) from psml data
Choosing vlocal chloc cutoff:  4.139772
qtot up to nchloc:    3.99998844
atom: Maximum radius for chlocal:    4.13977
atom: Maximum radius for r*vlocal+2*Zval:    4.13977
Reading KB projs from C psml data
Using scalar-relativistic projectors in PSML file

PSML: Kleinman-Bylander projectors: 
   l= 0   rc=  1.231096   Ekb= 12.963096
   l= 0   rc=  1.231096   Ekb=  0.771007
   l= 1   rc=  1.294237   Ekb= -8.399923
   l= 1   rc=  1.294237   Ekb= -1.755033

PSML: Total number of  Kleinman-Bylander projectors:   8
atom: -------------------------------------------------------------------------

atom: SANKEY-TYPE ORBITALS:

atom: basis set generated (by rescaling the valence charge)
atom: for a cation of charge   0.9994

SPLIT: Orbitals with angular momentum L= 0

SPLIT: Basis orbitals for state 2s

   izeta = 1
                 lambda =    1.000000
                     rc =    6.099293
                 energy =   -2.079355
                kinetic =    1.090115
    potential(screened) =   -3.169470
       potential(ionic) =   -5.727963

SPLIT: Orbitals with angular momentum L= 1

SPLIT: Basis orbitals for state 2p

   izeta = 1
                 lambda =    1.000000
                     rc =    6.740804
                 energy =   -1.441657
                kinetic =    3.222058
    potential(screened) =   -4.663715
       potential(ionic) =   -7.206130
*Note: V_local used for l= 2

** Using vlocal for PAOs with L= 2

SPLIT: Orbitals with angular momentum L= 2

SPLIT: Basis orbitals for state 3d

   izeta = 1
                 lambda =    1.000000
                     rc =    6.253707
                 energy =    0.017329
                kinetic =    1.197074
    potential(screened) =   -1.179745
       potential(ionic) =   -2.838380
atom: Total number of Sankey-type orbitals:  9

atm_pop: Valence configuration (for local Pseudopot. screening):
 2s( 2.00)                                                            
 2p( 2.00)                                                            
 3d( 0.00)                                                            
Vna: chval, zval:    4.00000   4.00000

Vna:  Cut-off radius for the neutral-atom potential:   6.740804
comcore: Pseudo-core radius Rcore=  1.682861

atom: _________________________________________________________________________

prinput: Basis input 

PAO.BasisType split     

%block ChemicalSpeciesLabel
    1    6 C                       # Species index, atomic number, species label
%endblock ChemicalSpeciesLabel

%block PAO.Basis                 # Define Basis set
# WARNING: This information might be incomplete!
C                     3   0.999            # Label, l-shells, ionic net charge
 n=2   0   1                         # n, l, Nzeta 
   6.099   
   1.000   
 n=2   1   1                         # n, l, Nzeta 
   6.741   
   1.000   
 n=3   2   1                         # n, l, Nzeta 
   6.254   
   1.000   
%endblock PAO.Basis

prinput: ----------------------------------------------------------------------

Dumping basis to NetCDF file C.ion.nc
coor:   Atomic-coordinates input format  =     Cartesian coordinates
coor:                                          (in Angstroms)

ioxv: Reading coordinates and velocities from file
! Info in XV file prevails over previous structure input

siesta: Atomic coordinates (Bohr) and species
siesta:      2.68535   0.00316  34.52736  1        1
siesta:     10.73580   0.00659  34.52988  1        2
siesta:     18.78829   0.00632  34.55079  1        3
siesta:     26.84079   0.00250  34.55619  1        4
siesta:     34.89095  -0.00164  34.56432  1        5
siesta:     42.94199  -0.00532  34.53821  1        6
siesta:     50.99467  -0.00511  34.55980  1        7
siesta:     59.04582  -0.00174  34.54235  1        8
siesta:      6.70896   2.32792  34.52715  1        9
siesta:     14.76127   2.32990  34.55622  1       10
siesta:     22.81366   2.32919  34.55757  1       11
siesta:     30.86410   2.32390  34.56230  1       12
siesta:     38.91597   2.32070  34.54571  1       13
siesta:     46.96675   2.31921  34.54613  1       14
siesta:     55.01837   2.32056  34.53885  1       15
siesta:     63.07081   2.32479  34.52858  1       16
siesta:     10.73326   4.65422  34.54935  1       17
siesta:     18.78677   4.65279  34.56108  1       18
siesta:     26.83831   4.65138  34.56182  1       19
siesta:     34.89011   4.64711  34.56355  1       20
siesta:     42.94048   4.64352  34.53035  1       21
siesta:     50.99174   4.64397  34.55514  1       22
siesta:     59.04276   4.64801  34.51125  1       23
siesta:      6.70749   6.97686  34.54957  1       24
siesta:     14.75876   6.97717  34.56242  1       25
siesta:     22.81287   6.97628  34.57436  1       26
siesta:     30.86412   6.97401  34.55071  1       27
siesta:     38.91471   6.96984  34.54668  1       28
siesta:     46.96557   6.96917  34.55513  1       29
siesta:     55.01475   6.97017  34.52710  1       30
siesta:     63.06722   6.97538  34.52942  1       31
siesta:     10.73226   9.29994  34.56713  1       32
siesta:     18.78619   9.30214  34.56114  1       33
siesta:     26.83826   9.29903  34.56350  1       34
siesta:     34.88957   9.29561  34.54062  1       35
siesta:     42.94092   9.29444  34.53092  1       36
siesta:     50.98895   9.29360  34.55898  1       37
siesta:     59.04137   9.29652  34.51301  1       38
siesta:     67.09322   9.30015  34.55351  1       39
siesta:     14.75811  11.62617  34.55751  1       40
siesta:     22.81119  11.62502  34.56002  1       41
siesta:     30.86329  11.62123  34.54017  1       42
siesta:     38.91617  11.61903  34.53750  1       43
siesta:     46.96626  11.61847  34.55585  1       44
siesta:     55.01621  11.61964  34.53954  1       45
siesta:     63.06665  11.62237  34.52504  1       46
siesta:     10.73219  13.95001  34.56732  1       47
siesta:     18.78599  13.94976  34.55912  1       48
siesta:     26.83891  13.94723  34.55181  1       49
siesta:     34.88942  13.94629  34.53492  1       50
siesta:     42.94124  13.94405  34.55066  1       51
siesta:     50.98812  13.94398  34.56288  1       52
siesta:     59.03999  13.94544  34.53852  1       53
siesta:     67.09375  13.94872  34.54215  1       54
siesta:     14.75859  16.27398  34.56356  1       55
siesta:     22.81186  16.27236  34.55685  1       56
siesta:     30.86545  16.27020  34.54131  1       57
siesta:     38.91653  16.26958  34.55168  1       58
siesta:     46.96665  16.26885  34.55407  1       59
siesta:     55.01656  16.27014  34.57836  1       60
siesta:     63.06794  16.27242  34.53538  1       61
siesta:     71.12188  16.27189  34.57239  1       62
siesta:     18.78552  18.59653  34.56010  1       63
siesta:     26.83910  18.59525  34.55251  1       64
siesta:     34.89144  18.59334  34.56254  1       65
siesta:     42.94262  18.59294  34.54477  1       66
siesta:     50.99040  18.59340  34.55671  1       67
siesta:     59.04167  18.59389  34.55486  1       68
siesta:     67.09309  18.59467  34.53738  1       69
siesta:     14.75936  20.92017  34.57419  1       70
siesta:     22.81403  20.91996  34.56184  1       71
siesta:     30.86650  20.91937  34.55349  1       72
siesta:     38.91775  20.91875  34.56350  1       73
siesta:     46.96777  20.91881  34.52731  1       74
siesta:     55.01607  20.91970  34.56751  1       75
siesta:     63.06809  20.91882  34.54044  1       76
siesta:     71.12307  20.92123  34.55403  1       77
siesta:     18.78761  23.24438  34.56753  1       78
siesta:     26.84045  23.24434  34.55093  1       79
siesta:     34.89308  23.24380  34.57295  1       80
siesta:     42.94430  23.24447  34.53828  1       81
siesta:     50.99297  23.24386  34.53762  1       82
siesta:     59.04232  23.24447  34.55721  1       83
siesta:     67.09680  23.24571  34.54129  1       84
siesta:     75.14985  23.24339  34.56096  1       85
siesta:     22.81527  25.56792  34.56247  1       86
siesta:     30.86815  25.56805  34.55762  1       87
siesta:     38.91995  25.56781  34.56457  1       88
siesta:     46.96938  25.56817  34.53373  1       89
siesta:     55.01827  25.56675  34.56220  1       90
siesta:     63.07053  25.56807  34.55209  1       91
siesta:     71.12351  25.56660  34.54647  1       92
siesta:     18.78907  27.89122  34.56120  1       93
siesta:     26.84271  27.89199  34.54898  1       94
siesta:     34.89510  27.89182  34.55219  1       95
siesta:     42.94498  27.89356  34.55704  1       96
siesta:     50.99369  27.89327  34.55032  1       97
siesta:     59.04471  27.89153  34.56449  1       98
siesta:     67.09850  27.89033  34.55849  1       99
siesta:     75.15191  27.89054  34.55044  1      100
siesta:     22.81673  30.21676  34.54492  1      101
siesta:     30.86844  30.21676  34.53931  1      102
siesta:     38.92255  30.21772  34.56101  1      103
siesta:     46.97143  30.21902  34.56694  1      104
siesta:     55.02051  30.21754  34.54725  1      105
siesta:     63.07327  30.21548  34.58764  1      106
siesta:     71.12589  30.21429  34.55785  1      107
siesta:     79.17951  30.21540  34.54867  1      108
siesta:     26.84399  32.54017  34.53369  1      109
siesta:     34.89540  32.54254  34.52826  1      110
siesta:     42.94558  32.54302  34.55876  1      111
siesta:     50.99556  32.54301  34.54719  1      112
siesta:     59.04688  32.54143  34.56711  1      113
siesta:     67.09980  32.53938  34.57758  1      114
siesta:     75.15342  32.53725  34.56212  1      115
siesta:     22.81733  34.86215  34.55070  1      116
siesta:     30.87140  34.86438  34.54109  1      117
siesta:     38.92200  34.86760  34.53606  1      118
siesta:     46.97151  34.86756  34.54768  1      119
siesta:     55.02134  34.86724  34.53815  1      120
siesta:     63.07502  34.86467  34.57391  1      121
siesta:     71.12635  34.86246  34.55633  1      122
siesta:     79.18037  34.86237  34.55120  1      123
siesta:     26.84441  37.18825  34.55064  1      124
siesta:     34.89661  37.18995  34.54616  1      125
siesta:     42.94612  37.19419  34.54877  1      126
siesta:     50.99792  37.19378  34.51038  1      127
siesta:     59.04814  37.19080  34.55198  1      128
siesta:     67.10067  37.18743  34.55733  1      129
siesta:     75.15463  37.18575  34.54966  1      130
siesta:     83.20676  37.18529  34.54586  1      131
siesta:     30.87013  39.51291  34.54253  1      132
siesta:     38.92131  39.51695  34.53848  1      133
siesta:     46.97141  39.51992  34.52584  1      134
siesta:     55.02093  39.51668  34.52699  1      135
siesta:     63.07448  39.51472  34.56803  1      136
siesta:     71.12601  39.51116  34.53628  1      137
siesta:     79.17919  39.50840  34.53147  1      138
siesta:     26.84362  41.83487  34.53905  1      139
siesta:     34.89655  41.84087  34.53385  1      140
siesta:     42.94613  41.84339  34.53906  1      141
siesta:     50.99677  41.84256  34.53218  1      142
siesta:     59.04889  41.84079  34.57005  1      143
siesta:     67.10057  41.83602  34.53860  1      144
siesta:     75.15306  41.83308  34.51988  1      145
siesta:     83.20577  41.83256  34.53713  1      146
siesta:     30.87003  44.16258  34.53380  1      147
siesta:     38.92041  44.16704  34.54900  1      148
siesta:     46.97057  44.16876  34.54826  1      149
siesta:     55.02220  44.16776  34.55020  1      150
siesta:     63.07323  44.16259  34.57033  1      151
siesta:     71.12562  44.15878  34.53761  1      152
siesta:     79.17882  44.15729  34.51854  1      153
siesta:     87.23175  44.15995  34.54481  1      154
siesta:     34.89398  46.48794  34.53551  1      155
siesta:     42.94523  46.49235  34.55228  1      156
siesta:     50.99774  46.49189  34.55005  1      157
siesta:     59.04753  46.48932  34.56808  1      158
siesta:     67.09940  46.48389  34.56427  1      159
siesta:     75.15190  46.48205  34.52180  1      160
siesta:     83.20447  46.48221  34.54311  1      161
siesta:     30.86722  48.81148  34.54351  1      162
siesta:     38.91864  48.81602  34.52521  1      163
siesta:     46.96880  48.81789  34.54927  1      164
siesta:     55.02136  48.81502  34.55730  1      165
siesta:     63.07199  48.81241  34.56742  1      166
siesta:     71.12416  48.80804  34.55610  1      167
siesta:     79.17518  48.80530  34.53900  1      168
siesta:     87.22968  48.80865  34.55640  1      169
siesta:      5.36647   0.00163  34.52060  1      170
siesta:     13.41788   0.00582  34.54600  1      171
siesta:     21.46974   0.00453  34.55645  1      172
siesta:     29.52284  -0.00034  34.56035  1      173
siesta:     37.57430  -0.00452  34.55117  1      174
siesta:     45.62699  -0.00575  34.53377  1      175
siesta:     53.67690  -0.00336  34.55695  1      176
siesta:     61.72993   0.00140  34.52631  1      177
siesta:      9.39390   2.32871  34.52988  1      178
siesta:     17.44583   2.33025  34.55265  1      179
siesta:     25.49595   2.32635  34.54927  1      180
siesta:     33.54924   2.32192  34.56234  1      181
siesta:     41.60062   2.31989  34.53733  1      182
siesta:     49.65042   2.31987  34.55532  1      183
siesta:     57.70083   2.32438  34.52276  1      184
siesta:      5.36318   4.65309  34.54167  1      185
siesta:     13.41646   4.65483  34.55475  1      186
siesta:     21.46852   4.65246  34.56460  1      187
siesta:     29.52282   4.64877  34.55425  1      188
siesta:     37.57438   4.64445  34.54886  1      189
siesta:     45.62583   4.64295  34.53919  1      190
siesta:     53.67588   4.64511  34.53908  1      191
siesta:     61.72633   4.64810  34.51797  1      192
siesta:      9.38852   6.97711  34.55548  1      193
siesta:     17.44329   6.97931  34.56338  1      194
siesta:     25.49651   6.97499  34.56814  1      195
siesta:     33.54746   6.97095  34.54327  1      196
siesta:     41.59950   6.96817  34.53145  1      197
siesta:     49.64908   6.96673  34.56108  1      198
siesta:     57.70085   6.97136  34.51524  1      199
siesta:     65.75307   6.97413  34.54850  1      200
siesta:     13.41750   9.30386  34.55860  1      201
siesta:     21.46856   9.30205  34.56596  1      202
siesta:     29.52347   9.29742  34.55068  1      203
siesta:     37.57379   9.29465  34.54194  1      204
siesta:     45.62234   9.29196  34.54857  1      205
siesta:     53.67602   9.29519  34.54179  1      206
siesta:     61.72486   9.29900  34.52327  1      207
siesta:      9.38857  11.62717  34.56860  1      208
siesta:     17.44167  11.62501  34.56342  1      209
siesta:     25.49605  11.62445  34.55432  1      210
siesta:     33.54936  11.62036  34.52953  1      211
siesta:     41.59895  11.61724  34.53852  1      212
siesta:     49.64998  11.61987  34.55638  1      213
siesta:     57.69890  11.62070  34.52671  1      214
siesta:     65.75109  11.62429  34.54045  1      215
siesta:     13.41528  13.94884  34.56123  1      216
siesta:     21.47021  13.94881  34.55509  1      217
siesta:     29.52260  13.94718  34.54277  1      218
siesta:     37.57379  13.94354  34.54073  1      219
siesta:     45.62295  13.94145  34.55335  1      220
siesta:     53.67311  13.94258  34.56704  1      221
siesta:     61.72466  13.94545  34.52956  1      222
siesta:     69.77651  13.94841  34.56806  1      223
siesta:     17.44274  16.27427  34.55569  1      224
siesta:     25.49743  16.27182  34.55256  1      225
siesta:     33.55015  16.26946  34.53903  1      226
siesta:     41.59957  16.26784  34.54825  1      227
siesta:     49.65104  16.26677  34.55730  1      228
siesta:     57.70048  16.27052  34.56486  1      229
siesta:     65.75284  16.27226  34.53625  1      230
siesta:     13.41615  18.59749  34.57807  1      231
siesta:     21.47071  18.59730  34.55142  1      232
siesta:     29.52476  18.59567  34.54475  1      233
siesta:     37.57563  18.59274  34.55982  1      234
siesta:     45.62401  18.59379  34.53901  1      235
siesta:     53.67503  18.59259  34.57626  1      236
siesta:     61.72478  18.59465  34.53925  1      237
siesta:     69.77724  18.59598  34.55625  1      238
siesta:     17.44477  20.92118  34.56668  1      239
siesta:     25.49805  20.92084  34.55364  1      240
siesta:     33.55058  20.91936  34.56403  1      241
siesta:     41.60156  20.91785  34.54472  1      242
siesta:     49.65067  20.91766  34.52915  1      243
siesta:     57.70233  20.91777  34.55933  1      244
siesta:     65.75366  20.91901  34.54071  1      245
siesta:     73.80673  20.92145  34.56295  1      246
siesta:     21.47203  23.24338  34.56525  1      247
siesta:     29.52616  23.24369  34.54990  1      248
siesta:     37.57737  23.24409  34.56943  1      249
siesta:     45.62607  23.24230  34.52892  1      250
siesta:     53.67645  23.24323  34.54621  1      251
siesta:     61.72778  23.24419  34.54525  1      252
siesta:     69.78039  23.24374  34.54118  1      253
siesta:     17.44521  25.56767  34.56245  1      254
siesta:     25.50117  25.56735  34.55455  1      255
siesta:     33.55370  25.56867  34.56256  1      256
siesta:     41.60297  25.56774  34.54440  1      257
siesta:     49.65361  25.56941  34.53569  1      258
siesta:     57.70503  25.56915  34.56311  1      259
siesta:     65.75456  25.56759  34.54599  1      260
siesta:     73.80790  25.56655  34.54798  1      261
siesta:     21.47441  27.89245  34.55873  1      262
siesta:     29.52836  27.89161  34.54330  1      263
siesta:     37.57730  27.89242  34.55793  1      264
siesta:     45.62862  27.89388  34.55222  1      265
siesta:     53.67783  27.89480  34.54928  1      266
siesta:     61.72852  27.89275  34.57065  1      267
siesta:     69.78140  27.89245  34.55131  1      268
siesta:     77.83679  27.89141  34.54192  1      269
siesta:     25.50173  30.21582  34.53510  1      270
siesta:     33.55652  30.21659  34.53541  1      271
siesta:     41.60563  30.21859  34.55642  1      272
siesta:     49.65494  30.21723  34.56072  1      273
siesta:     57.70468  30.21785  34.55902  1      274
siesta:     65.75526  30.21714  34.57866  1      275
siesta:     73.80884  30.21538  34.56213  1      276
siesta:     21.47597  32.53820  34.54480  1      277
siesta:     29.52835  32.54022  34.53247  1      278
siesta:     37.57971  32.54441  34.54056  1      279
siesta:     45.63078  32.54360  34.56023  1      280
siesta:     53.68103  32.54298  34.54165  1      281
siesta:     61.72965  32.54132  34.58544  1      282
siesta:     69.78269  32.53938  34.56958  1      283
siesta:     77.83780  32.53726  34.55309  1      284
siesta:     25.50399  34.86291  34.55016  1      285
siesta:     33.55701  34.86578  34.53842  1      286
siesta:     41.60544  34.86842  34.54457  1      287
siesta:     49.65554  34.86907  34.53238  1      288
siesta:     57.70550  34.86666  34.55668  1      289
siesta:     65.75587  34.86393  34.57039  1      290
siesta:     73.80920  34.86265  34.55384  1      291
siesta:     81.86440  34.86308  34.55435  1      292
siesta:     29.52879  37.19043  34.54628  1      293
siesta:     37.58138  37.19140  34.53916  1      294
siesta:     45.63155  37.19402  34.54611  1      295
siesta:     53.68099  37.19252  34.52052  1      296
siesta:     61.73030  37.18988  34.56804  1      297
siesta:     69.78422  37.18660  34.54920  1      298
siesta:     77.83795  37.18527  34.54122  1      299
siesta:     25.50342  39.51164  34.54759  1      300
siesta:     33.55487  39.51613  34.53964  1      301
siesta:     41.60721  39.51827  34.54092  1      302
siesta:     49.65542  39.51749  34.51734  1      303
siesta:     57.70675  39.51603  34.55120  1      304
siesta:     65.75662  39.51297  34.55229  1      305
siesta:     73.80988  39.51048  34.53911  1      306
siesta:     81.86461  39.51087  34.53327  1      307
siesta:     29.52911  41.83810  34.53601  1      308
siesta:     37.57941  41.83981  34.53853  1      309
siesta:     45.63031  41.84244  34.53891  1      310
siesta:     53.68157  41.84233  34.53332  1      311
siesta:     61.73093  41.83754  34.57378  1      312
siesta:     69.78410  41.83456  34.53260  1      313
siesta:     77.83638  41.83448  34.51704  1      314
siesta:     85.89042  41.83653  34.53479  1      315
siesta:     33.55166  44.16269  34.53847  1      316
siesta:     41.60559  44.16608  34.55244  1      317
siesta:     49.65513  44.16897  34.54819  1      318
siesta:     57.70517  44.16459  34.56967  1      319
siesta:     65.75800  44.16166  34.55209  1      320
siesta:     73.80981  44.15723  34.51946  1      321
siesta:     81.86190  44.15889  34.52968  1      322
siesta:     29.52446  46.48408  34.54580  1      323
siesta:     37.57853  46.49227  34.52940  1      324
siesta:     45.63004  46.49170  34.55757  1      325
siesta:     53.67846  46.49062  34.54935  1      326
siesta:     61.73114  46.48734  34.56416  1      327
siesta:     69.78325  46.48285  34.55797  1      328
siesta:     77.83551  46.48164  34.52161  1      329
siesta:     85.88657  46.48244  34.54886  1      330
siesta:     33.55080  48.81254  34.53125  1      331
siesta:     41.60138  48.81702  34.52868  1      332
siesta:     49.65438  48.81634  34.55180  1      333
siesta:     57.70513  48.81391  34.55782  1      334
siesta:     65.75737  48.80934  34.56493  1      335
siesta:     73.80956  48.80592  34.53069  1      336
siesta:     81.86089  48.80665  34.54961  1      337
siesta:     89.91082  48.80982  34.54604  1      338
siesta:      6.87006   1.79731  41.04320  1      339
siesta:     14.89607   1.17724  41.04380  1      340
siesta:     22.92466   0.55968  41.02683  1      341
siesta:     30.95313  -0.05478  41.03646  1      342
siesta:     38.98102  -0.67003  41.04680  1      343
siesta:     47.00944  -1.28751  41.05116  1      344
siesta:     55.03736  -1.90869  41.06206  1      345
siesta:      3.03594   4.42730  41.04755  1      346
siesta:     11.06397   3.80350  41.03968  1      347
siesta:     19.09037   3.18547  41.03885  1      348
siesta:     27.11829   2.56982  41.01434  1      349
siesta:     35.14606   1.95545  41.03548  1      350
siesta:     43.17472   1.34025  41.06101  1      351
siesta:     51.20330   0.71933  41.06284  1      352
siesta:     59.23118   0.09716  41.06765  1      353
siesta:      7.22867   6.43238  41.03035  1      354
siesta:     15.25562   5.81204  41.05602  1      355
siesta:     23.28339   5.19465  41.02143  1      356
siesta:     31.31055   4.58053  41.01406  1      357
siesta:     39.34010   3.96558  41.04347  1      358
siesta:     47.36847   3.34812  41.05870  1      359
siesta:     55.39718   2.72593  41.07250  1      360
siesta:     11.42201   8.43972  41.05657  1      361
siesta:     19.44761   7.82135  41.06504  1      362
siesta:     27.47614   7.20525  41.01149  1      363
siesta:     35.50509   6.59033  41.02053  1      364
siesta:     43.53377   5.97393  41.04751  1      365
siesta:     51.56212   5.35426  41.04820  1      366
siesta:     59.59056   4.73106  41.05693  1      367
siesta:      7.58771  11.06815  41.04254  1      368
siesta:     15.61389  10.44833  41.07011  1      369
siesta:     23.64110   9.83174  41.03413  1      370
siesta:     31.66814   9.21508  41.02152  1      371
siesta:     39.69770   8.60077  41.04033  1      372
siesta:     47.72734   7.98264  41.03372  1      373
siesta:     55.75628   7.36094  41.05654  1      374
siesta:     63.78404   6.73575  41.03881  1      375
siesta:     11.78011  13.07567  41.05031  1      376
siesta:     19.80612  12.45729  41.03941  1      377
siesta:     27.83320  11.84076  41.03493  1      378
siesta:     35.86285  11.22481  41.02772  1      379
siesta:     43.89208  10.60924  41.03676  1      380
siesta:     51.92030   9.98925  41.05059  1      381
siesta:     59.94788   9.36743  41.05767  1      382
siesta:     15.96996  15.08513  41.03451  1      383
siesta:     23.99740  14.46655  41.02770  1      384
siesta:     32.02534  13.85034  41.03868  1      385
siesta:     40.05561  13.23360  41.03076  1      386
siesta:     48.08543  12.61519  41.03694  1      387
siesta:     56.11441  11.99501  41.05130  1      388
siesta:     64.14278  11.37355  41.05492  1      389
siesta:     12.13738  17.71148  41.01830  1      390
siesta:     20.16278  17.09310  41.01416  1      391
siesta:     28.18927  16.47518  41.03608  1      392
siesta:     36.21831  15.85929  41.03678  1      393
siesta:     44.24861  15.24182  41.04165  1      394
siesta:     52.27784  14.62350  41.04119  1      395
siesta:     60.30704  14.00211  41.05532  1      396
siesta:     68.33395  13.37946  41.04726  1      397
siesta:     16.32700  19.71945  41.01430  1      398
siesta:     24.35311  19.10213  41.03351  1      399
siesta:     32.38162  18.48454  41.03958  1      400
siesta:     40.41139  17.86844  41.03227  1      401
siesta:     48.44205  17.24893  41.04128  1      402
siesta:     56.47002  16.62943  41.04747  1      403
siesta:     64.49906  16.00718  41.04976  1      404
siesta:     20.51883  21.72942  41.03918  1      405
siesta:     28.54478  21.11123  41.04954  1      406
siesta:     36.57423  20.49335  41.04017  1      407
siesta:     44.60451  19.87641  41.02301  1      408
siesta:     52.63468  19.25581  41.02999  1      409
siesta:     60.66275  18.63683  41.04741  1      410
siesta:     68.69067  18.01622  41.02816  1      411
siesta:     16.68255  24.35774  41.04572  1      412
siesta:     24.70830  23.73805  41.06093  1      413
siesta:     32.73631  23.11998  41.04723  1      414
siesta:     40.76714  22.50125  41.03143  1      415
siesta:     48.79755  21.88355  41.01409  1      416
siesta:     56.82742  21.26399  41.03885  1      417
siesta:     64.85665  20.64464  41.04178  1      418
siesta:     72.88142  20.02412  41.03270  1      419
siesta:     20.87396  26.36540  41.05376  1      420
siesta:     28.90077  25.74631  41.03612  1      421
siesta:     36.92890  25.12834  41.03621  1      422
siesta:     44.95994  24.50884  41.01666  1      423
siesta:     52.98911  23.88991  41.03374  1      424
siesta:     61.01850  23.27060  41.05366  1      425
siesta:     69.04625  22.65139  41.03602  1      426
siesta:     25.06412  28.37485  41.05590  1      427
siesta:     33.09216  27.75493  41.04027  1      428
siesta:     41.12249  27.13609  41.02812  1      429
siesta:     49.15399  26.51583  41.02276  1      430
siesta:     57.18320  25.89776  41.05010  1      431
siesta:     65.21209  25.27860  41.04201  1      432
siesta:     73.23803  24.66020  41.02905  1      433
siesta:     21.22988  31.00183  41.02956  1      434
siesta:     29.25670  30.38275  41.03547  1      435
siesta:     37.28452  29.76279  41.05276  1      436
siesta:     45.31530  29.14271  41.02936  1      437
siesta:     53.34527  28.52343  41.04244  1      438
siesta:     61.37404  27.90598  41.04965  1      439
siesta:     69.40190  27.28853  41.03549  1      440
siesta:     77.42735  26.66915  41.03040  1      441
siesta:     25.42145  33.01041  41.03056  1      442
siesta:     33.44873  32.38958  41.04377  1      443
siesta:     41.47791  31.76955  41.04654  1      444
siesta:     49.50815  31.14897  41.05176  1      445
siesta:     57.53827  30.53154  41.05503  1      446
siesta:     65.56802  29.91489  41.04681  1      447
siesta:     73.59253  29.29721  41.02143  1      448
siesta:     29.61277  35.01758  41.05096  1      449
siesta:     37.64147  34.39690  41.03699  1      450
siesta:     45.67118  33.77716  41.04313  1      451
siesta:     53.70180  33.15794  41.05429  1      452
siesta:     61.73006  32.54054  41.04113  1      453
siesta:     69.75849  31.92333  41.03970  1      454
siesta:     77.78393  31.30576  41.01837  1      455
siesta:     25.77796  37.64640  41.04726  1      456
siesta:     33.80621  37.02511  41.05010  1      457
siesta:     41.83528  36.40418  41.03829  1      458
siesta:     49.86410  35.78454  41.06112  1      459
siesta:     57.89425  35.16665  41.03416  1      460
siesta:     65.92238  34.55116  41.04668  1      461
siesta:     73.94920  33.93385  41.03742  1      462
siesta:     81.97478  33.31468  41.03110  1      463
siesta:     29.97027  39.65349  41.05625  1      464
siesta:     37.99847  39.03073  41.03731  1      465
siesta:     46.02741  38.40975  41.04755  1      466
siesta:     54.05814  37.79206  41.03210  1      467
siesta:     62.08757  37.17645  41.04163  1      468
siesta:     70.11466  36.56089  41.04457  1      469
siesta:     78.14056  35.94147  41.03544  1      470
siesta:     34.16430  41.65899  41.04860  1      471
siesta:     42.19283  41.03722  41.02802  1      472
siesta:     50.22215  40.41828  41.05180  1      473
siesta:     58.25125  39.80162  41.02057  1      474
siesta:     66.27973  39.18524  41.04183  1      475
siesta:     74.30661  38.56866  41.03977  1      476
siesta:     82.33307  37.95006  41.03014  1      477
siesta:     30.33007  44.28741  41.05105  1      478
siesta:     38.35754  43.66505  41.02956  1      479
siesta:     46.38589  43.04405  41.05220  1      480
siesta:     54.41585  42.42639  41.01763  1      481
siesta:     62.44367  41.81047  41.03445  1      482
siesta:     70.47162  41.19653  41.03328  1      483
siesta:     78.49862  40.57848  41.02029  1      484
siesta:     86.52498  39.95663  41.05772  1      485
siesta:     34.52381  46.29300  41.05643  1      486
siesta:     42.55101  45.67112  41.04596  1      487
siesta:     50.57987  45.05188  41.04656  1      488
siesta:     58.60953  44.43530  41.01216  1      489
siesta:     66.63807  43.82155  41.04965  1      490
siesta:     74.66388  43.20538  41.01076  1      491
siesta:     82.68991  42.58580  41.02474  1      492
siesta:     38.71699  48.29906  41.04743  1      493
siesta:     46.74473  47.67899  41.05490  1      494
siesta:     54.77361  47.06099  41.02789  1      495
siesta:     62.80204  46.44612  41.06347  1      496
siesta:     70.82978  45.83028  41.03243  1      497
siesta:     78.85781  45.21325  41.01862  1      498
siesta:     86.88496  44.59316  41.05317  1      499
siesta:     34.88443  50.92741  41.05590  1      500
siesta:     42.91099  50.30638  41.04488  1      501
siesta:     50.93938  49.68663  41.04704  1      502
siesta:     58.96698  49.07096  41.03684  1      503
siesta:     66.99495  48.45631  41.05611  1      504
siesta:     75.02249  47.84047  41.03745  1      505
siesta:     83.05015  47.22176  41.03966  1      506
siesta:     91.07841  46.59765  41.06887  1      507
siesta:      1.51742   2.21337  41.05567  1      508
siesta:      9.54520   1.59008  41.03697  1      509
siesta:     17.57345   0.97102  41.04537  1      510
siesta:     25.60120   0.35451  41.02741  1      511
siesta:     33.62936  -0.25983  41.04525  1      512
siesta:     41.65681  -0.87512  41.05495  1      513
siesta:     49.68559  -1.49433  41.05327  1      514
siesta:     57.71250  -2.11543  41.07045  1      515
siesta:      5.71161   4.21957  41.03419  1      516
siesta:     13.73889   3.59820  41.04364  1      517
siesta:     21.76515   2.98072  41.02554  1      518
siesta:     29.79300   2.36618  41.02000  1      519
siesta:     37.82224   1.75035  41.04642  1      520
siesta:     45.85105   1.13372  41.06579  1      521
siesta:     53.87884   0.51300  41.06905  1      522
siesta:      9.90485   6.22602  41.03880  1      523
siesta:     17.93227   5.60614  41.05661  1      524
siesta:     25.95935   4.99039  41.01108  1      525
siesta:     33.98714   4.37547  41.02433  1      526
siesta:     42.01606   3.75930  41.04958  1      527
siesta:     50.04434   3.14020  41.05285  1      528
siesta:     58.07226   2.51838  41.06533  1      529
siesta:      6.07112   8.85493  41.02810  1      530
siesta:     14.09810   8.23333  41.06388  1      531
siesta:     22.12461   7.61576  41.04282  1      532
siesta:     30.15138   6.99923  41.00974  1      533
siesta:     38.17957   6.38405  41.03657  1      534
siesta:     46.20843   5.76560  41.05390  1      535
siesta:     54.23853   5.14593  41.06172  1      536
siesta:     62.26702   4.52471  41.04713  1      537
siesta:     10.26370  10.86217  41.04842  1      538
siesta:     18.28976  10.24175  41.05692  1      539
siesta:     26.31556   9.62526  41.02669  1      540
siesta:     34.34467   9.01025  41.02043  1      541
siesta:     42.37311   8.39257  41.04003  1      542
siesta:     50.40478   7.77555  41.05281  1      543
siesta:     58.43357   7.15219  41.05842  1      544
siesta:     14.45554  12.86935  41.05799  1      545
siesta:     22.48193  12.25059  41.03700  1      546
siesta:     30.50876  11.63574  41.03204  1      547
siesta:     38.53693  11.01892  41.02961  1      548
siesta:     46.56770  10.40191  41.02672  1      549
siesta:     54.59611   9.78147  41.05285  1      550
siesta:     62.62594   9.15878  41.04618  1      551
siesta:     10.62095  15.49661  41.03345  1      552
siesta:     18.64714  14.87815  41.02291  1      553
siesta:     26.67368  14.26147  41.03643  1      554
siesta:     34.70094  13.64423  41.04128  1      555
siesta:     42.72964  13.02728  41.04005  1      556
siesta:     50.76104  12.40728  41.04457  1      557
siesta:     58.79071  11.78613  41.05685  1      558
siesta:     66.81795  11.16534  41.04797  1      559
siesta:     14.81334  17.50496  41.01298  1      560
siesta:     22.83850  16.88801  41.02442  1      561
siesta:     30.86517  16.27074  41.03975  1      562
siesta:     38.89451  15.65375  41.03445  1      563
siesta:     46.92557  15.03628  41.05328  1      564
siesta:     54.95620  14.41527  41.04152  1      565
siesta:     62.98439  13.79338  41.05562  1      566
siesta:     19.00338  19.51460  41.01511  1      567
siesta:     27.02919  18.89720  41.04055  1      568
siesta:     35.05732  18.28027  41.03654  1      569
siesta:     43.08594  17.66087  41.03113  1      570
siesta:     51.11685  17.04207  41.03515  1      571
siesta:     59.14741  16.42119  41.05440  1      572
siesta:     67.17491  15.80022  41.03349  1      573
siesta:     15.16823  22.14281  41.02936  1      574
siesta:     23.19462  21.52390  41.04450  1      575
siesta:     31.22199  20.90614  41.04508  1      576
siesta:     39.25028  20.28714  41.03174  1      577
siesta:     47.28087  19.66696  41.02556  1      578
siesta:     55.31120  19.04795  41.04513  1      579
siesta:     63.33998  18.42887  41.04194  1      580
siesta:     71.36630  17.80966  41.02013  1      581
siesta:     19.35927  24.15134  41.05482  1      582
siesta:     27.38555  23.53332  41.05113  1      583
siesta:     35.41354  22.91353  41.04249  1      584
siesta:     43.44221  22.29606  41.02062  1      585
siesta:     51.47453  21.67624  41.02972  1      586
siesta:     59.50448  21.05682  41.04648  1      587
siesta:     67.53068  20.43710  41.03590  1      588
siesta:     23.54983  26.15988  41.06599  1      589
siesta:     31.57641  25.54098  41.04243  1      590
siesta:     39.60614  24.92129  41.02895  1      591
siesta:     47.63547  24.30398  41.00896  1      592
siesta:     55.66782  23.68445  41.04234  1      593
siesta:     63.69596  23.06454  41.04588  1      594
siesta:     71.72215  22.44505  41.03361  1      595
siesta:     19.71483  28.78821  41.03703  1      596
siesta:     27.74099  28.16784  41.04195  1      597
siesta:     35.76940  27.54810  41.04581  1      598
siesta:     43.79877  26.92793  41.02168  1      599
siesta:     51.82888  26.31096  41.03212  1      600
siesta:     59.85787  25.69147  41.04920  1      601
siesta:     67.88555  25.07324  41.03785  1      602
siesta:     75.91218  24.45415  41.03744  1      603
siesta:     23.90539  30.79595  41.03698  1      604
siesta:     31.93247  30.17532  41.03986  1      605
siesta:     39.96186  29.55534  41.04976  1      606
siesta:     47.99236  28.93653  41.03480  1      607
siesta:     56.02260  28.31750  41.04826  1      608
siesta:     64.05125  27.69968  41.04534  1      609
siesta:     72.07769  27.08193  41.02036  1      610
siesta:     28.09604  32.80371  41.03793  1      611
siesta:     36.12472  32.18206  41.04756  1      612
siesta:     44.15416  31.56230  41.03679  1      613
siesta:     52.18528  30.94482  41.05258  1      614
siesta:     60.21498  30.32707  41.05228  1      615
siesta:     68.24148  29.70859  41.04238  1      616
siesta:     76.26861  29.09090  41.02053  1      617
siesta:     24.26232  35.43196  41.03604  1      618
siesta:     32.28902  34.81012  41.04733  1      619
siesta:     40.31775  34.18824  41.04247  1      620
siesta:     48.34928  33.57019  41.05695  1      621
siesta:     56.37788  32.95274  41.04789  1      622
siesta:     64.40717  32.33584  41.04363  1      623
siesta:     72.43365  31.71834  41.03602  1      624
siesta:     80.45940  31.09950  41.02308  1      625
siesta:     28.45322  37.43834  41.05904  1      626
siesta:     36.48150  36.81648  41.03933  1      627
siesta:     44.51082  36.19609  41.04407  1      628
siesta:     52.54093  35.57718  41.05070  1      629
siesta:     60.57051  34.96152  41.03709  1      630
siesta:     68.59817  34.34530  41.04325  1      631
siesta:     76.62467  33.72777  41.03066  1      632
siesta:     32.64707  39.44468  41.06065  1      633
siesta:     40.67518  38.82224  41.02975  1      634
siesta:     48.70625  38.20301  41.05748  1      635
siesta:     56.73526  37.58722  41.02473  1      636
siesta:     64.76344  36.97067  41.04502  1      637
siesta:     72.78954  36.35405  41.04944  1      638
siesta:     80.81609  35.73618  41.03882  1      639
siesta:     28.81143  42.07497  41.05554  1      640
siesta:     36.83957  41.45110  41.03061  1      641
siesta:     44.86915  40.82997  41.04217  1      642
siesta:     52.89875  40.21291  41.03225  1      643
siesta:     60.92774  39.59664  41.03458  1      644
siesta:     68.95536  38.98008  41.04029  1      645
siesta:     76.98195  38.36420  41.03792  1      646
siesta:     85.00788  37.74365  41.04720  1      647
siesta:     33.00477  44.08026  41.05504  1      648
siesta:     41.03295  43.45702  41.02957  1      649
siesta:     49.06308  42.83728  41.05353  1      650
siesta:     57.09077  42.22077  41.00780  1      651
siesta:     65.11921  41.60658  41.03975  1      652
siesta:     73.14701  40.99150  41.02166  1      653
siesta:     81.17418  40.37181  41.01791  1      654
siesta:     37.19882  46.08514  41.04715  1      655
siesta:     45.22837  45.46429  41.05195  1      656
siesta:     53.25745  44.84597  41.02928  1      657
siesta:     61.28567  44.23161  41.03859  1      658
siesta:     69.31381  43.61622  41.03816  1      659
siesta:     77.34003  42.99874  41.02202  1      660
siesta:     85.36766  42.37863  41.04616  1      661
siesta:     33.36454  48.71517  41.05956  1      662
siesta:     41.39297  48.09150  41.04641  1      663
siesta:     49.42046  47.47268  41.05204  1      664
siesta:     57.44936  46.85753  41.02296  1      665
siesta:     65.47747  46.24208  41.07004  1      666
siesta:     73.50529  45.62517  41.02055  1      667
siesta:     81.53343  45.00752  41.02970  1      668
siesta:     89.55931  44.38459  41.06349  1      669
siesta:     37.55839  50.72066  41.04788  1      670
siesta:     45.58769  50.09765  41.04285  1      671
siesta:     53.61473  49.48155  41.03677  1      672
siesta:     61.64248  48.86607  41.04947  1      673
siesta:     69.67113  48.25245  41.04114  1      674
siesta:     77.69981  47.63533  41.03501  1      675
siesta:     85.72615  47.01365  41.04959  1      676

siesta: System type = slab      

initatomlists: Number of atoms, orbitals, and projectors:    676  6084  5408

siesta: ******************** Simulation parameters ****************************
siesta:
siesta: The following are some of the parameters of the simulation.
siesta: A complete list of the parameters used, including default values,
siesta: can be found in file out.fdf
siesta:
redata: Spin configuration                          = none
redata: Number of spin components                   = 1
redata: Time-Reversal Symmetry                      = T
redata: Spin spiral                                 = F
redata: Long output                                 =   F
redata: Number of Atomic Species                    =        1
redata: Charge density info will appear in .RHO file
redata: Write Mulliken Pop.                         = NO
redata: Matel table size (NRTAB)                    =     1024
redata: Mesh Cutoff                                 =   300.0000 Ry
redata: Net charge of the system                    =     0.0000 |e|
redata: Min. number of SCF Iter                     =        3
redata: Max. number of SCF Iter                     =      300
redata: SCF convergence failure will abort job
redata: SCF mix quantity                            = Hamiltonian
redata: Mix DM or H after convergence               =   F
redata: Recompute H after scf cycle                 =   F
redata: Mix DM in first SCF step                    =   T
redata: Write Pulay info on disk                    =   F
redata: New DM Occupancy tolerance                  = 0.000000000001
redata: No kicks to SCF
redata: DM Mixing Weight for Kicks                  =     0.5000
redata: Require Harris convergence for SCF          =   F
redata: Harris energy tolerance for SCF             =     0.000100 eV
redata: Require DM convergence for SCF              =   T
redata: DM tolerance for SCF                        =     0.000100
redata: Require EDM convergence for SCF             =   F
redata: EDM tolerance for SCF                       =     0.001000 eV
redata: Require H convergence for SCF               =   T
redata: Hamiltonian tolerance for SCF               =     0.001000 eV
redata: Require (free) Energy convergence for SCF   =   F
redata: (free) Energy tolerance for SCF             =     0.000100 eV
redata: Using DFT-D3 dispersion                     =   T
redata: Using Saved Data (generic)                  =   F
redata: Use continuation files for DM               =   T
redata: Neglect nonoverlap interactions             =   F
redata: Method of Calculation                       = Diagonalization
redata: Electronic Temperature                      =   299.9863 K
redata: Fix the spin of the system                  =   F
redata: Max. number of TDED Iter                    =        1
redata: Number of TDED substeps                     =        3
redata: Dynamics option                             = CG coord. optimization
redata: Variable cell                               =   F
redata: Use continuation files for CG               =   F
redata: Max atomic displ per move                   =     0.2646 Ang
redata: Maximum number of optimization moves        =      200
redata: Force tolerance                             =     0.0100 eV/Ang
mix.SCF: Pulay mixing                            = Pulay
mix.SCF:    Variant                              = stable
mix.SCF:    History steps                        = 12
mix.SCF:    Linear mixing weight                 =     0.100000
mix.SCF:    Mixing weight                        =     0.100000
mix.SCF:    SVD condition                        = 0.1000E-07
redata: Save all siesta data in one NC              =   F
redata: ***********************************************************************

%block SCF.Mixers
  Pulay
%endblock SCF.Mixers

%block SCF.Mixer.Pulay
  # Mixing method
  method pulay
  variant stable

  # Mixing options
  weight 0.1000
  weight.linear 0.1000
  history 12
%endblock SCF.Mixer.Pulay
 
DFT-D3: loading default parameters for functional PBE.
DM_history_depth set to one: no extrapolation allowed by default for geometry relaxation
Size of DM history Fstack: 1
Total number of electrons:  2704.000000
Total ionic charge:  2704.000000

* ProcessorY, Blocksize:    8  64


* Orbital distribution balance (max,min):   128    64

 Kpoints in:            1 . Kpoints trimmed:            1

siesta: k-grid: Number of k-points = 1
siesta: k-points from Monkhorst-Pack grid
siesta: k-cutoff (effective) =    15.990 Ang
siesta: k-point supercell and displacements
siesta: k-grid:     1     0     0      0.000
siesta: k-grid:     0     1     0      0.000
siesta: k-grid:     0     0     1      0.000
 
diag: Algorithm                                     = D&C
diag: Parallel over k                               =   F
diag: Use parallel 2D distribution                  =   T
diag: Parallel block-size                           = 64
diag: Parallel distribution                         =     8 x     8
diag: Used triangular part                          = Lower
diag: Absolute tolerance                            =  0.100E-15
diag: Orthogonalization factor                      =  0.100E-05
diag: Memory factor                                 =  1.0000
 
siesta: Constraint v=[  0.00000,  0.00000,  1.00000] (676): center-dir
  [ 1 -- 676 ]
 
 
ts: **************************************************************
ts: Save H and S matrices                           =    F
ts: Save DM and EDM matrices                        =    F
ts: Only save the overlap matrix S                  =    F
ts: **************************************************************
 
************************ Begin: TS CHECKS AND WARNINGS ************************
************************ End: TS CHECKS AND WARNINGS **************************


                     ====================================
                        Begin CG opt. move =      0
                     ====================================

outcell: Unit cell vectors (Ang):
       31.956337   -1.230000    0.000000
       17.043380   27.060000    0.000000
        0.000000    0.000000   40.000000

outcell: Cell vector modules (Ang)   :   31.980000   31.980000   40.000000
outcell: Cell angles (23,13,12) (deg):     90.0000     90.0000     60.0000
outcell: Cell volume (Ang**3)        :  35428.0739
<dSpData1D:S at geom step 0
  <sparsity:sparsity for geom step 0
    nrows_g=6084 nrows=128 sparsity=.0033 nnzs=122116, refcount: 7>
  <dData1D:(new from dSpData1D) n=122116, refcount: 1>
refcount: 1>
new_DM -- step:     1
Initializing Density Matrix...
 
Attempting to read DM from file... Succeeded...
DM from file:
<dSpData2D:IO-DM: Graphene.DM
  <sparsity:IO-DM: Graphene.DM
    nrows_g=6084 nrows=128 sparsity=.0033 nnzs=122116, refcount: 1>
  <dData2D:(new from dSpData2D) n=122116 m=1, refcount: 1>
refcount: 1>
DM to be used:
<dSpData2D:Re-structured SpM
  <sparsity:sparsity for geom step 0
    nrows_g=6084 nrows=128 sparsity=.0033 nnzs=122116, refcount: 8>
  <dData2D:(new in restruct) n=122116 m=1, refcount: 1>
refcount: 1>
No. of atoms with KB's overlaping orbs in proc 0. Max # of overlaps:     284     231

InitMesh: MESH = 300 x 300 x 432 = 38880000
InitMesh: Mesh cutoff (required, used) =   300.000   322.366 Ry
New grid distribution [1]: sub = 2
New grid distribution [2]: sub = 2
New grid distribution [3]: sub = 2
Setting up quadratic distribution...

stepf: Fermi-Dirac step function

siesta: Program's energy decomposition (eV):
siesta: Ebs     =    -35869.325648
siesta: Eions   =    190741.314426
siesta: Ena     =     42118.548680
siesta: Ekin    =     76837.003669
siesta: Enl     =     -3897.466775
siesta: Eso     =         0.000000
siesta: Edftu   =         0.000000
siesta: DEna    =      4425.483610
siesta: DUscf   =       224.494071
siesta: DUext   =         0.000000
siesta: Ex      =    -36059.342059
siesta: Ec      =     -3430.846057
siesta: Exc     =    -39490.188115
siesta: EbV     =         0.000000
siesta: eta*DQ  =         0.000000
siesta: Emadel  =         0.000000
siesta: Emeta   =         0.000000
siesta: Emolmec =         0.000000
siesta: Ekinion =         0.000000
siesta: Eharris =   -110523.359647
siesta: Etot    =   -110523.439286
siesta: FreeEng =   -110523.439286

        iscf     Eharris(eV)        E_KS(eV)     FreeEng(eV)     dDmax    Ef(eV) dHmax(eV)
   scf:    1  -110523.359647  -110523.439286  -110523.439286  0.010848 -3.951212  0.244222
timer: Routine,Calls,Time,% = IterSCF        1       7.388  47.24
   scf:    2  -110523.475431  -110523.458965  -110523.458965  0.002314 -3.951226  0.154351
   scf:    3  -110523.480054  -110523.470938  -110523.470938  0.002502 -3.951344  0.074286
   scf:    4  -110523.476675  -110523.474949  -110523.474949  0.002338 -3.951454  0.007537
   scf:    5  -110523.475057  -110523.475015  -110523.475015  0.000205 -3.951452  0.001763
   scf:    6  -110523.475041  -110523.475031  -110523.475031  0.000061 -3.951451  0.000860

SCF Convergence by DM+H criterion
max |DM_out - DM_in|         :     0.0000614114
max |H_out - H_in|      (eV) :     0.0008600374
SCF cycle converged after 6 iterations

Using DM_out to compute the final energy and forces
No. of atoms with KB's overlaping orbs in proc 0. Max # of overlaps:     284     231
System symmetry is of type slab but no DFTD3.Periodic list was found. Attempting to guess symmetry for D3.
Could not guess the right amount of periodicity directions for D3.
Enabling periodicity on all directions.

siesta: E_KS(eV) =          -110590.6213

siesta: E_KS - E_eggbox =   -110590.6213

siesta: Atomic forces (eV/Ang):
----------------------------------------
   Tot    0.001147   -0.001267    0.001603
----------------------------------------
   Max    0.133428
   Res    0.034677    sqrt( Sum f_i^2 / 3N )
----------------------------------------
   Max    0.133429    constrained

Stress tensor Voigt[x,y,z,yz,xz,xy] (kbar):      -25.91      -25.92       -4.68        0.00       -0.00        0.01
(Free)E + p*V (eV/cell)  -110174.0989
Target enthalpy (eV/cell)  -110590.6213

                     ====================================
                        Begin CG opt. move =      1
                     ====================================

outcell: Unit cell vectors (Ang):
       31.956337   -1.230000    0.000000
       17.043380   27.060000    0.000000
        0.000000    0.000000   40.000000

outcell: Cell vector modules (Ang)   :   31.980000   31.980000   40.000000
outcell: Cell angles (23,13,12) (deg):     90.0000     90.0000     60.0000
outcell: Cell volume (Ang**3)        :  35428.0739
<dSpData1D:S at geom step 1
  <sparsity:sparsity for geom step 1
    nrows_g=6084 nrows=128 sparsity=.0033 nnzs=123005, refcount: 7>
  <dData1D:(new from dSpData1D) n=123005, refcount: 1>
refcount: 1>
new_DM -- step:     2
Re-using DM from previous geometries...
Number of DMs in history: 1
 DM extrapolation coefficients: 
1   1.00000
New DM after history re-use:
<dSpData2D:SpM extrapolated using coords
  <sparsity:sparsity for geom step 1
    nrows_g=6084 nrows=128 sparsity=.0033 nnzs=123005, refcount: 9>
  <dData2D:(temp array for extrapolation) n=123005 m=1, refcount: 1>
refcount: 1>
No. of atoms with KB's overlaping orbs in proc 0. Max # of overlaps:     286     238

InitMesh: MESH = 300 x 300 x 432 = 38880000
InitMesh: Mesh cutoff (required, used) =   300.000   322.366 Ry
New grid distribution [1]: sub = 2
New grid distribution [2]: sub = 2
New grid distribution [3]: sub = 2
Setting up quadratic distribution...

        iscf     Eharris(eV)        E_KS(eV)     FreeEng(eV)     dDmax    Ef(eV) dHmax(eV)
   scf:    1  -110585.904958  -110587.555552  -110587.555552  0.016462 -3.954228  0.668097
   scf:    2  -110580.264315  -110585.566568  -110585.566568  0.050171 -3.948886  2.351070
   scf:    3  -110588.057983  -110587.914090  -110587.914090  0.040001 -3.953010  0.164106
   scf:    4  -110588.011409  -110587.979795  -110587.979795  0.006237 -3.952828  0.036535
   scf:    5  -110587.985627  -110587.983091  -110587.983091  0.000784 -3.952679  0.021861
   scf:    6  -110587.986269  -110587.984829  -110587.984829  0.000342 -3.952712  0.009016
   scf:    7  -110587.985531  -110587.985209  -110587.985209  0.000201 -3.952741  0.005538
   scf:    8  -110587.985353  -110587.985289  -110587.985289  0.000130 -3.952714  0.001767
   scf:    9  -110587.985317  -110587.985305  -110587.985305  0.000066 -3.952704  0.000612

SCF Convergence by DM+H criterion
max |DM_out - DM_in|         :     0.0000661536
max |H_out - H_in|      (eV) :     0.0006121544
SCF cycle converged after 9 iterations

Using DM_out to compute the final energy and forces
No. of atoms with KB's overlaping orbs in proc 0. Max # of overlaps:     286     238
System symmetry is of type slab but no DFTD3.Periodic list was found. Attempting to guess symmetry for D3.
Could not guess the right amount of periodicity directions for D3.
Enabling periodicity on all directions.

siesta: E_KS(eV) =          -110587.9343

siesta: Atomic forces (eV/Ang):
----------------------------------------
   Tot    0.003336   -0.000221   -0.001527
----------------------------------------
   Max    2.283580
   Res    0.548148    sqrt( Sum f_i^2 / 3N )
----------------------------------------
   Max    2.283575    constrained

Stress tensor Voigt[x,y,z,yz,xz,xy] (kbar):      -26.26      -26.16       -4.65       -0.00       -0.00       -0.16
(Free)E + p*V (eV/cell)  -110167.3210
Target enthalpy (eV/cell)  -110587.9343

                     ====================================
                        Begin CG opt. move =      2
                     ====================================

outcell: Unit cell vectors (Ang):
       31.956337   -1.230000    0.000000
       17.043380   27.060000    0.000000
        0.000000    0.000000   40.000000

outcell: Cell vector modules (Ang)   :   31.980000   31.980000   40.000000
outcell: Cell angles (23,13,12) (deg):     90.0000     90.0000     60.0000
outcell: Cell volume (Ang**3)        :  35428.0739
<dSpData1D:S at geom step 2
  <sparsity:sparsity for geom step 2
    nrows_g=6084 nrows=128 sparsity=.0033 nnzs=122115, refcount: 7>
  <dData1D:(new from dSpData1D) n=122115, refcount: 1>
refcount: 1>
new_DM -- step:     3
Re-using DM from previous geometries...
Number of DMs in history: 1
 DM extrapolation coefficients: 
1   1.00000
New DM after history re-use:
<dSpData2D:SpM extrapolated using coords
  <sparsity:sparsity for geom step 2
    nrows_g=6084 nrows=128 sparsity=.0033 nnzs=122115, refcount: 9>
  <dData2D:(temp array for extrapolation) n=122115 m=1, refcount: 1>
refcount: 1>
No. of atoms with KB's overlaping orbs in proc 0. Max # of overlaps:     284     231

InitMesh: MESH = 300 x 300 x 432 = 38880000
InitMesh: Mesh cutoff (required, used) =   300.000   322.366 Ry
New grid distribution [1]: sub = 2
New grid distribution [2]: sub = 2
New grid distribution [3]: sub = 2
Setting up quadratic distribution...

        iscf     Eharris(eV)        E_KS(eV)     FreeEng(eV)     dDmax    Ef(eV) dHmax(eV)
   scf:    1  -110590.069615  -110590.222940  -110590.222940  0.015365 -3.950820  0.456652
   scf:    2  -110585.516466  -110589.009364  -110589.009364  0.045811 -3.952323  1.318412
   scf:    3  -110590.712896  -110590.545839  -110590.545839  0.034954 -3.951210  0.134273
   scf:    4  -110590.600474  -110590.582444  -110590.582444  0.004714 -3.951348  0.032072
   scf:    5  -110590.587313  -110590.585142  -110590.585142  0.000624 -3.951440  0.019230
   scf:    6  -110590.587688  -110590.586533  -110590.586533  0.000309 -3.951492  0.008135
   scf:    7  -110590.587087  -110590.586835  -110590.586835  0.000212 -3.951514  0.003273
   scf:    8  -110590.586925  -110590.586884  -110590.586884  0.000091 -3.951520  0.001273
   scf:    9  -110590.586905  -110590.586896  -110590.586896  0.000065 -3.951520  0.000551

SCF Convergence by DM+H criterion
max |DM_out - DM_in|         :     0.0000646382
max |H_out - H_in|      (eV) :     0.0005509362
SCF cycle converged after 9 iterations

Using DM_out to compute the final energy and forces
No. of atoms with KB's overlaping orbs in proc 0. Max # of overlaps:     284     231
System symmetry is of type slab but no DFTD3.Periodic list was found. Attempting to guess symmetry for D3.
Could not guess the right amount of periodicity directions for D3.
Enabling periodicity on all directions.

siesta: E_KS(eV) =          -110590.6350

siesta: Atomic forces (eV/Ang):
----------------------------------------
   Tot   -0.000363   -0.001515    0.000791
----------------------------------------
   Max    0.085541
   Res    0.017060    sqrt( Sum f_i^2 / 3N )
----------------------------------------
   Max    0.085541    constrained

Stress tensor Voigt[x,y,z,yz,xz,xy] (kbar):      -25.91      -25.92       -4.68        0.00       -0.00       -0.00
(Free)E + p*V (eV/cell)  -110174.1235
Target enthalpy (eV/cell)  -110590.6350

cgvc: Finished line minimization    1.  Mean atomic displacement =    0.0013

                     ====================================
                        Begin CG opt. move =      3
                     ====================================

outcell: Unit cell vectors (Ang):
       31.956337   -1.230000    0.000000
       17.043380   27.060000    0.000000
        0.000000    0.000000   40.000000

outcell: Cell vector modules (Ang)   :   31.980000   31.980000   40.000000
outcell: Cell angles (23,13,12) (deg):     90.0000     90.0000     60.0000
outcell: Cell volume (Ang**3)        :  35428.0739
<dSpData1D:S at geom step 3
  <sparsity:sparsity for geom step 3
    nrows_g=6084 nrows=128 sparsity=.0033 nnzs=122115, refcount: 7>
  <dData1D:(new from dSpData1D) n=122115, refcount: 1>
refcount: 1>
new_DM -- step:     4
Re-using DM from previous geometries...
Number of DMs in history: 1
 DM extrapolation coefficients: 
1   1.00000
New DM after history re-use:
<dSpData2D:SpM extrapolated using coords
  <sparsity:sparsity for geom step 3
    nrows_g=6084 nrows=128 sparsity=.0033 nnzs=122115, refcount: 9>
  <dData2D:(temp array for extrapolation) n=122115 m=1, refcount: 1>
refcount: 1>
No. of atoms with KB's overlaping orbs in proc 0. Max # of overlaps:     284     231

InitMesh: MESH = 300 x 300 x 432 = 38880000
InitMesh: Mesh cutoff (required, used) =   300.000   322.366 Ry
New grid distribution [1]: sub = 2
New grid distribution [2]: sub = 2
New grid distribution [3]: sub = 2
Setting up quadratic distribution...

        iscf     Eharris(eV)        E_KS(eV)     FreeEng(eV)     dDmax    Ef(eV) dHmax(eV)
   scf:    1  -110590.668075  -110590.649291  -110590.649291  0.007876 -3.951672  0.015294
   scf:    2  -110590.641902  -110590.647348  -110590.647348  0.001536 -3.951567  0.041953
   scf:    3  -110590.650190  -110590.649765  -110590.649765  0.001151 -3.951645  0.004191
   scf:    4  -110590.649804  -110590.649791  -110590.649791  0.000119 -3.951643  0.000997
   scf:    5  -110590.649797  -110590.649794  -110590.649794  0.000028 -3.951648  0.000491

SCF Convergence by DM+H criterion
max |DM_out - DM_in|         :     0.0000277882
max |H_out - H_in|      (eV) :     0.0004906891
SCF cycle converged after 5 iterations

Using DM_out to compute the final energy and forces
No. of atoms with KB's overlaping orbs in proc 0. Max # of overlaps:     284     231
System symmetry is of type slab but no DFTD3.Periodic list was found. Attempting to guess symmetry for D3.
Could not guess the right amount of periodicity directions for D3.
Enabling periodicity on all directions.

siesta: E_KS(eV) =          -110590.6432

siesta: Atomic forces (eV/Ang):
----------------------------------------
   Tot    0.002396   -0.000970    0.000835
----------------------------------------
   Max    0.051043
   Res    0.013122    sqrt( Sum f_i^2 / 3N )
----------------------------------------
   Max    0.051043    constrained

Stress tensor Voigt[x,y,z,yz,xz,xy] (kbar):      -25.91      -25.92       -4.67        0.00       -0.00        0.00
(Free)E + p*V (eV/cell)  -110174.1310
Target enthalpy (eV/cell)  -110590.6432

                     ====================================
                        Begin CG opt. move =      4
                     ====================================

outcell: Unit cell vectors (Ang):
       31.956337   -1.230000    0.000000
       17.043380   27.060000    0.000000
        0.000000    0.000000   40.000000

outcell: Cell vector modules (Ang)   :   31.980000   31.980000   40.000000
outcell: Cell angles (23,13,12) (deg):     90.0000     90.0000     60.0000
outcell: Cell volume (Ang**3)        :  35428.0739
<dSpData1D:S at geom step 4
  <sparsity:sparsity for geom step 4
    nrows_g=6084 nrows=128 sparsity=.0033 nnzs=122065, refcount: 7>
  <dData1D:(new from dSpData1D) n=122065, refcount: 1>
refcount: 1>
new_DM -- step:     5
Re-using DM from previous geometries...
Number of DMs in history: 1
 DM extrapolation coefficients: 
1   1.00000
New DM after history re-use:
<dSpData2D:SpM extrapolated using coords
  <sparsity:sparsity for geom step 4
    nrows_g=6084 nrows=128 sparsity=.0033 nnzs=122065, refcount: 9>
  <dData2D:(temp array for extrapolation) n=122065 m=1, refcount: 1>
refcount: 1>
No. of atoms with KB's overlaping orbs in proc 0. Max # of overlaps:     284     231

InitMesh: MESH = 300 x 300 x 432 = 38880000
InitMesh: Mesh cutoff (required, used) =   300.000   322.366 Ry
New grid distribution [1]: sub = 2
New grid distribution [2]: sub = 2
New grid distribution [3]: sub = 2
Setting up quadratic distribution...

        iscf     Eharris(eV)        E_KS(eV)     FreeEng(eV)     dDmax    Ef(eV) dHmax(eV)
   scf:    1  -110590.676665  -110590.649368  -110590.649368  0.007832 -3.951413  0.026490
   scf:    2  -110590.629582  -110590.644139  -110590.644139  0.002573 -3.951318  0.070342
   scf:    3  -110590.651687  -110590.650598  -110590.650598  0.001942 -3.951380  0.006742
   scf:    4  -110590.650707  -110590.650669  -110590.650669  0.000193 -3.951377  0.001751
   scf:    5  -110590.650685  -110590.650678  -110590.650678  0.000049 -3.951384  0.000748

SCF Convergence by DM+H criterion
max |DM_out - DM_in|         :     0.0000491829
max |H_out - H_in|      (eV) :     0.0007479350
SCF cycle converged after 5 iterations

Using DM_out to compute the final energy and forces
No. of atoms with KB's overlaping orbs in proc 0. Max # of overlaps:     284     231
System symmetry is of type slab but no DFTD3.Periodic list was found. Attempting to guess symmetry for D3.
Could not guess the right amount of periodicity directions for D3.
Enabling periodicity on all directions.

siesta: E_KS(eV) =          -110590.6402

siesta: Atomic forces (eV/Ang):
----------------------------------------
   Tot    0.003602   -0.000715    0.000475
----------------------------------------
   Max    0.156015
   Res    0.032005    sqrt( Sum f_i^2 / 3N )
----------------------------------------
   Max    0.156009    constrained

Stress tensor Voigt[x,y,z,yz,xz,xy] (kbar):      -25.92      -25.92       -4.67        0.00       -0.00        0.01
(Free)E + p*V (eV/cell)  -110174.1264
Target enthalpy (eV/cell)  -110590.6402

                     ====================================
                        Begin CG opt. move =      5
                     ====================================

outcell: Unit cell vectors (Ang):
       31.956337   -1.230000    0.000000
       17.043380   27.060000    0.000000
        0.000000    0.000000   40.000000

outcell: Cell vector modules (Ang)   :   31.980000   31.980000   40.000000
outcell: Cell angles (23,13,12) (deg):     90.0000     90.0000     60.0000
outcell: Cell volume (Ang**3)        :  35428.0739
<dSpData1D:S at geom step 5
  <sparsity:sparsity for geom step 5
    nrows_g=6084 nrows=128 sparsity=.0033 nnzs=122115, refcount: 7>
  <dData1D:(new from dSpData1D) n=122115, refcount: 1>
refcount: 1>
new_DM -- step:     6
Re-using DM from previous geometries...
Number of DMs in history: 1
 DM extrapolation coefficients: 
1   1.00000
New DM after history re-use:
<dSpData2D:SpM extrapolated using coords
  <sparsity:sparsity for geom step 5
    nrows_g=6084 nrows=128 sparsity=.0033 nnzs=122115, refcount: 9>
  <dData2D:(temp array for extrapolation) n=122115 m=1, refcount: 1>
refcount: 1>
No. of atoms with KB's overlaping orbs in proc 0. Max # of overlaps:     284     231

InitMesh: MESH = 300 x 300 x 432 = 38880000
InitMesh: Mesh cutoff (required, used) =   300.000   322.366 Ry
New grid distribution [1]: sub = 2
New grid distribution [2]: sub = 2
New grid distribution [3]: sub = 2
Setting up quadratic distribution...

        iscf     Eharris(eV)        E_KS(eV)     FreeEng(eV)     dDmax    Ef(eV) dHmax(eV)
   scf:    1  -110590.619744  -110590.637090  -110590.637090  0.006724 -3.951596  0.015832
   scf:    2  -110590.629374  -110590.635055  -110590.635055  0.001590 -3.951507  0.045911
   scf:    3  -110590.638001  -110590.637577  -110590.637577  0.001198 -3.951624  0.004202
   scf:    4  -110590.637625  -110590.637608  -110590.637608  0.000123 -3.951623  0.001004
   scf:    5  -110590.637617  -110590.637613  -110590.637613  0.000030 -3.951617  0.000582

SCF Convergence by DM+H criterion
max |DM_out - DM_in|         :     0.0000295201
max |H_out - H_in|      (eV) :     0.0005820604
SCF cycle converged after 5 iterations

Using DM_out to compute the final energy and forces
No. of atoms with KB's overlaping orbs in proc 0. Max # of overlaps:     284     231
System symmetry is of type slab but no DFTD3.Periodic list was found. Attempting to guess symmetry for D3.
Could not guess the right amount of periodicity directions for D3.
Enabling periodicity on all directions.

siesta: E_KS(eV) =          -110590.6444

siesta: Atomic forces (eV/Ang):
----------------------------------------
   Tot    0.002922   -0.001315    0.000932
----------------------------------------
   Max    0.085814
   Res    0.018154    sqrt( Sum f_i^2 / 3N )
----------------------------------------
   Max    0.085810    constrained

Stress tensor Voigt[x,y,z,yz,xz,xy] (kbar):      -25.92      -25.92       -4.67        0.00       -0.00        0.01
(Free)E + p*V (eV/cell)  -110174.1299
Target enthalpy (eV/cell)  -110590.6444

cgvc: Finished line minimization    2.  Mean atomic displacement =    0.0020

                     ====================================
                        Begin CG opt. move =      6
                     ====================================

outcell: Unit cell vectors (Ang):
       31.956337   -1.230000    0.000000
       17.043380   27.060000    0.000000
        0.000000    0.000000   40.000000

outcell: Cell vector modules (Ang)   :   31.980000   31.980000   40.000000
outcell: Cell angles (23,13,12) (deg):     90.0000     90.0000     60.0000
outcell: Cell volume (Ang**3)        :  35428.0739
<dSpData1D:S at geom step 6
  <sparsity:sparsity for geom step 6
    nrows_g=6084 nrows=128 sparsity=.0033 nnzs=122050, refcount: 7>
  <dData1D:(new from dSpData1D) n=122050, refcount: 1>
refcount: 1>
new_DM -- step:     7
Re-using DM from previous geometries...
Number of DMs in history: 1
 DM extrapolation coefficients: 
1   1.00000
New DM after history re-use:
<dSpData2D:SpM extrapolated using coords
  <sparsity:sparsity for geom step 6
    nrows_g=6084 nrows=128 sparsity=.0033 nnzs=122050, refcount: 9>
  <dData2D:(temp array for extrapolation) n=122050 m=1, refcount: 1>
refcount: 1>
No. of atoms with KB's overlaping orbs in proc 0. Max # of overlaps:     284     231

InitMesh: MESH = 300 x 300 x 432 = 38880000
InitMesh: Mesh cutoff (required, used) =   300.000   322.366 Ry
New grid distribution [1]: sub = 2
New grid distribution [2]: sub = 2
New grid distribution [3]: sub = 2
Setting up quadratic distribution...

        iscf     Eharris(eV)        E_KS(eV)     FreeEng(eV)     dDmax    Ef(eV) dHmax(eV)
   scf:    1  -110590.703900  -110590.664978  -110590.664978  0.001462 -3.951505  0.035983
   scf:    2  -110590.653686  -110590.662028  -110590.662028  0.003139 -3.951356  0.105650
   scf:    3  -110590.665928  -110590.665685  -110590.665685  0.002468 -3.951501  0.009141
   scf:    4  -110590.665848  -110590.665797  -110590.665797  0.000337 -3.951491  0.001423
   scf:    5  -110590.665811  -110590.665804  -110590.665804  0.000022 -3.951502  0.000810

SCF Convergence by DM+H criterion
max |DM_out - DM_in|         :     0.0000215405
max |H_out - H_in|      (eV) :     0.0008104495
SCF cycle converged after 5 iterations

Using DM_out to compute the final energy and forces
No. of atoms with KB's overlaping orbs in proc 0. Max # of overlaps:     284     231
System symmetry is of type slab but no DFTD3.Periodic list was found. Attempting to guess symmetry for D3.
Could not guess the right amount of periodicity directions for D3.
Enabling periodicity on all directions.

siesta: E_KS(eV) =          -110590.6526

siesta: Atomic forces (eV/Ang):
----------------------------------------
   Tot    0.000239   -0.000661    0.001214
----------------------------------------
   Max    0.060520
   Res    0.013212    sqrt( Sum f_i^2 / 3N )
----------------------------------------
   Max    0.060520    constrained

Stress tensor Voigt[x,y,z,yz,xz,xy] (kbar):      -25.92      -25.92       -4.66        0.00       -0.00        0.00
(Free)E + p*V (eV/cell)  -110174.1604
Target enthalpy (eV/cell)  -110590.6526

                     ====================================
                        Begin CG opt. move =      7
                     ====================================

outcell: Unit cell vectors (Ang):
       31.956337   -1.230000    0.000000
       17.043380   27.060000    0.000000
        0.000000    0.000000   40.000000

outcell: Cell vector modules (Ang)   :   31.980000   31.980000   40.000000
outcell: Cell angles (23,13,12) (deg):     90.0000     90.0000     60.0000
outcell: Cell volume (Ang**3)        :  35428.0739
<dSpData1D:S at geom step 7
  <sparsity:sparsity for geom step 7
    nrows_g=6084 nrows=128 sparsity=.0033 nnzs=121966, refcount: 7>
  <dData1D:(new from dSpData1D) n=121966, refcount: 1>
refcount: 1>
new_DM -- step:     8
Re-using DM from previous geometries...
Number of DMs in history: 1
 DM extrapolation coefficients: 
1   1.00000
New DM after history re-use:
<dSpData2D:SpM extrapolated using coords
  <sparsity:sparsity for geom step 7
    nrows_g=6084 nrows=128 sparsity=.0033 nnzs=121966, refcount: 9>
  <dData2D:(temp array for extrapolation) n=121966 m=1, refcount: 1>
refcount: 1>
No. of atoms with KB's overlaping orbs in proc 0. Max # of overlaps:     284     231

InitMesh: MESH = 300 x 300 x 432 = 38880000
InitMesh: Mesh cutoff (required, used) =   300.000   322.366 Ry
New grid distribution [1]: sub = 2
New grid distribution [2]: sub = 2
New grid distribution [3]: sub = 2
Setting up quadratic distribution...

        iscf     Eharris(eV)        E_KS(eV)     FreeEng(eV)     dDmax    Ef(eV) dHmax(eV)
   scf:    1  -110590.714827  -110590.658297  -110590.658297  0.003751 -3.951675  0.060202
   scf:    2  -110590.627293  -110590.650097  -110590.650097  0.005180 -3.951541  0.179805
   scf:    3  -110590.660710  -110590.660110  -110590.660110  0.004099 -3.951683  0.015878
   scf:    4  -110590.660547  -110590.660414  -110590.660414  0.000574 -3.951666  0.002013
   scf:    5  -110590.660445  -110590.660431  -110590.660431  0.000031 -3.951683  0.001179
   scf:    6  -110590.660445  -110590.660439  -110590.660439  0.000031 -3.951707  0.000459

SCF Convergence by DM+H criterion
max |DM_out - DM_in|         :     0.0000310364
max |H_out - H_in|      (eV) :     0.0004586775
SCF cycle converged after 6 iterations

Using DM_out to compute the final energy and forces
No. of atoms with KB's overlaping orbs in proc 0. Max # of overlaps:     284     231
System symmetry is of type slab but no DFTD3.Periodic list was found. Attempting to guess symmetry for D3.
Could not guess the right amount of periodicity directions for D3.
Enabling periodicity on all directions.

siesta: E_KS(eV) =          -110590.6392

siesta: Atomic forces (eV/Ang):
----------------------------------------
   Tot   -0.002342    0.000301    0.000273
----------------------------------------
   Max    0.158814
   Res    0.040855    sqrt( Sum f_i^2 / 3N )
----------------------------------------
   Max    0.158814    constrained

Stress tensor Voigt[x,y,z,yz,xz,xy] (kbar):      -25.92      -25.93       -4.65        0.00       -0.00       -0.00
(Free)E + p*V (eV/cell)  -110174.1838
Target enthalpy (eV/cell)  -110590.6392

                     ====================================
                        Begin CG opt. move =      8
                     ====================================

outcell: Unit cell vectors (Ang):
       31.956337   -1.230000    0.000000
       17.043380   27.060000    0.000000
        0.000000    0.000000   40.000000

outcell: Cell vector modules (Ang)   :   31.980000   31.980000   40.000000
outcell: Cell angles (23,13,12) (deg):     90.0000     90.0000     60.0000
outcell: Cell volume (Ang**3)        :  35428.0739
<dSpData1D:S at geom step 8
  <sparsity:sparsity for geom step 8
    nrows_g=6084 nrows=128 sparsity=.0033 nnzs=122050, refcount: 7>
  <dData1D:(new from dSpData1D) n=122050, refcount: 1>
refcount: 1>
new_DM -- step:     9
Re-using DM from previous geometries...
Number of DMs in history: 1
 DM extrapolation coefficients: 
1   1.00000
New DM after history re-use:
<dSpData2D:SpM extrapolated using coords
  <sparsity:sparsity for geom step 8
    nrows_g=6084 nrows=128 sparsity=.0033 nnzs=122050, refcount: 9>
  <dData2D:(temp array for extrapolation) n=122050 m=1, refcount: 1>
refcount: 1>
[...]
   14.72907981    6.26510687   21.71880604   1     378  C
   18.97781586    5.94087670   21.72037922   1     379  C
   23.22743327    5.61532783   21.74844999   1     380  C
   27.47703593    5.28710350   21.78442858   1     381  C
   31.72581916    4.95681953   21.79761723   1     382  C
    8.45307470    7.98078513   21.75042964   1     383  C
   12.69953999    7.65428127   21.72460570   1     384  C
   16.94743643    7.32937211   21.71404428   1     385  C
   21.19691671    7.00433441   21.72562534   1     386  C
   25.44696645    6.67735958   21.75871163   1     387  C
   29.69650832    6.34820871   21.78295873   1     388  C
   33.94479233    6.01792440   21.78154272   1     389  C
    6.42412811    9.37179980   21.74979846   1     390  C
   10.67022657    9.04418773   21.73248411   1     391  C
   14.91715920    8.71830537   21.71606045   1     392  C
   19.16604959    8.39305440   21.71399964   1     393  C
   23.41624191    8.06689772   21.73436335   1     394  C
   27.66647919    7.73889882   21.76126204   1     395  C
   31.91556324    7.40934576   21.77106518   1     396  C
   36.16304791    7.07946711   21.76476635   1     397  C
    8.64108528   10.43486364   21.73664581   1     398  C
   12.88732349   10.10791929   21.72228287   1     399  C
   17.13521647    9.78203260   21.71504055   1     400  C
   21.38500861    9.45603442   21.71982899   1     401  C
   25.63561543    9.12887799   21.74198348   1     402  C
   29.88553183    8.80023978   21.75647902   1     403  C
   34.13379372    8.47082112   21.75712155   1     404  C
   10.85777553   11.49830162   21.72855577   1     405  C
   15.10463532   11.17156629   21.72239629   1     406  C
   19.35360761   10.84518306   21.71875557   1     407  C
   23.60419341   10.51837308   21.72773507   1     408  C
   27.85478136   10.19056637   21.74349357   1     409  C
   32.10403429    9.86194319   21.74927595   1     410  C
   36.35137252    9.53306792   21.74591101   1     411  C
    8.82851260   12.88918668   21.73028753   1     412  C
   13.07460991   12.56177045   21.72909788   1     413  C
   17.32250738   12.23470861   21.72676472   1     414  C
   21.57245374   11.90766556   21.72488000   1     415  C
   25.82339455   11.58026867   21.73247587   1     416  C
   30.07357712   11.25237811   21.73934029   1     417  C
   34.32192843   10.92407843   21.74042533   1     418  C
   38.56833732   10.59590915   21.73532051   1     419  C
   11.04510288   13.95249063   21.73265390   1     420  C
   15.29199285   13.62474595   21.73492993   1     421  C
   19.54094458   13.29710296   21.73159013   1     422  C
   23.79155731   12.96962901   21.72721036   1     423  C
   28.04241516   12.64207519   21.73209584   1     424  C
   32.29173314   12.31456570   21.73426737   1     425  C
   36.53902539   11.98684093   21.73297929   1     426  C
   13.26202923   15.01535180   21.74102262   1     427  C
   17.50987521   14.68704206   21.74196752   1     428  C
   21.75989317   14.35902434   21.73362741   1     429  C
   26.01070349   14.03153767   21.72697839   1     430  C
   30.26094685   13.70438750   21.72835551   1     431  C
   34.50927897   13.37741719   21.72944441   1     432  C
   38.75565477   13.05009250   21.72879212   1     433  C
   11.23262318   16.40643224   21.74121408   1     434  C
   15.47963608   16.07772100   21.75129913   1     435  C
   19.72854105   15.74893867   21.74746242   1     436  C
   23.97900554   15.42079394   21.73121305   1     437  C
   28.22976243   15.09366682   21.72396930   1     438  C
   32.47906128   14.76717983   21.72466675   1     439  C
   36.72634863   14.44064770   21.72631620   1     440  C
   40.97217540   14.11340603   21.73053064   1     441  C
   13.45009330   17.46891799   21.75734994   1     442  C
   17.69796332   17.13944087   21.76155220   1     443  C
   21.94769661   16.81050808   21.74732122   1     444  C
   26.19820640   16.48275360   21.72723630   1     445  C
   30.44830608   16.15640880   21.72294943   1     446  C
   34.69653898   15.83061014   21.72345020   1     447  C
   38.94309011   15.50420587   21.72834723   1     448  C
   15.66816785   18.53062017   21.77236161   1     449  C
   19.91697345   18.20081002   21.76745403   1     450  C
   24.16704596   17.87212967   21.74189734   1     451  C
   28.41734593   17.54535481   21.72535186   1     452  C
   32.66651242   17.21991628   21.72339109   1     453  C
   36.91382457   16.89448512   21.72601590   1     454  C
   41.15996128   16.56752313   21.73819233   1     455  C
   13.63907592   19.92218697   21.77786394   1     456  C
   17.88708072   19.59182445   21.78512123   1     457  C
   22.13637318   19.26208656   21.76529148   1     458  C
   26.38645003   18.93423876   21.73565100   1     459  C
   30.63610899   18.60866772   21.72527839   1     460  C
   34.88434072   18.28393223   21.72507631   1     461  C
   39.13106918   17.95825992   21.73422403   1     462  C
   43.37734762   17.63028615   21.75656065   1     463  C
   15.85783078   20.98336912   21.79560694   1     464  C
   20.10646706   20.65275257   21.78891968   1     465  C
   24.35595283   20.32370282   21.75607058   1     466  C
   28.60570446   19.99714414   21.73087968   1     467  C
   32.85464355   19.67268753   21.72594365   1     468  C
   37.10208020   19.34812351   21.73063259   1     469  C
   41.34860766   19.02139972   21.75220642   1     470  C
   18.07719378   22.04414645   21.80589619   1     471  C
   22.32612718   21.71387849   21.78210979   1     472  C
   26.57556799   21.38597727   21.74554122   1     473  C
   30.82472945   21.06094152   21.72872910   1     474  C
   35.07283518   20.73713430   21.72870990   1     475  C
   39.31990540   20.41186153   21.74417663   1     476  C
   43.56668968   20.08372074   21.77599679   1     477  C
   16.04842764   23.43606551   21.81558224   1     478  C
   20.29692286   23.10495412   21.80560206   1     479  C
   24.54577899   22.77557511   21.76926938   1     480  C
   28.79488464   22.44921145   21.73736746   1     481  C
   33.04350401   22.12539142   21.72819771   1     482  C
   37.29116901   21.80148562   21.73539769   1     483  C
   41.53822469   21.47484851   21.76743857   1     484  C
   45.78541087   21.14517477   21.79882159   1     485  C
   18.26811202   24.49672942   21.82205138   1     486  C
   22.51662111   24.16607831   21.79579556   1     487  C
   26.76539340   23.83808773   21.75457201   1     488  C
   31.01406170   23.51340937   21.73234249   1     489  C
   35.26226987   23.19015378   21.73022686   1     490  C
   39.50972794   22.86516484   21.75400893   1     491  C
   43.75699628   22.53684330   21.79455826   1     492  C
   20.48800838   25.55743046   21.81744126   1     493  C
   24.73629829   25.22784772   21.77873729   1     494  C
   28.98476680   24.90164451   21.74319026   1     495  C
   33.23311783   24.57818718   21.73011695   1     496  C
   37.48104320   24.25457901   21.74115732   1     497  C
   41.72859524   23.92795989   21.78189445   1     498  C
   45.97628362   23.59809653   21.81619931   1     499  C
   18.45943072   26.94936902   21.82890650   1     500  C
   22.70766409   26.61862047   21.80236311   1     501  C
   26.95573722   26.29061076   21.76147714   1     502  C
   31.20399242   25.96610158   21.73534265   1     503  C
   35.45218180   25.64308547   21.73193208   1     504  C
   39.70008754   25.31829614   21.76319088   1     505  C
   43.94789618   24.98982978   21.80775539   1     506  C
   48.19596485   24.65888777   21.82771623   1     507  C
    0.80378517    1.17100303   21.82741641   1     508  C
    5.05189038    0.84004635   21.80768743   1     509  C
    9.29965621    0.51165861   21.76795115   1     510  C
   13.54758052    0.18679951   21.73765559   1     511  C
   17.79576684   -0.13617648   21.73001482   1     512  C
   22.04406415   -0.46065315   21.75805173   1     513  C
   26.29208542   -0.78874443   21.80406502   1     514  C
   30.54030787   -1.11952771   21.82813636   1     515  C
    3.02348278    2.23174839   21.81666392   1     516  C
    7.27116663    1.90183348   21.78641142   1     517  C
   11.51865369    1.57525719   21.74805189   1     518  C
   15.76665108    1.25165106   21.72842305   1     519  C
   20.01498040    0.92818201   21.73981545   1     520  C
   24.26338418    0.60197218   21.78080827   1     521  C
   28.51177558    0.27238480   21.82002267   1     522  C
    5.24279353    3.29290548   21.79872977   1     523  C
    9.49012895    2.96462685   21.76248995   1     524  C
   13.73758832    2.63963054   21.73177627   1     525  C
   17.98571854    2.31643224   21.72775069   1     526  C
   22.23445710    1.99165802   21.75651270   1     527  C
   26.48307033    1.66373852   21.80151964   1     528  C
   30.73164771    1.33308546   21.82340574   1     529  C
    3.21438389    4.68458955   21.80035885   1     530  C
    7.46164442    4.35498322   21.77706027   1     531  C
   11.70856469    4.02835406   21.74045359   1     532  C
   15.95624724    3.70436394   21.72154353   1     533  C
   20.20484138    3.38061163   21.73488615   1     534  C
   24.45394853    3.05429328   21.77517853   1     535  C
   28.70288342    2.72490670   21.81054738   1     536  C
   32.95134366    2.39369473   21.81523942   1     537  C
    5.43309787    5.74618659   21.78256247   1     538  C
    9.67994314    5.41803030   21.75376842   1     539  C
   13.92691721    5.09274174   21.72379996   1     540  C
   18.17508783    4.76889250   21.72114503   1     541  C
   22.42424534    4.44387779   21.74834013   1     542  C
   26.67359184    4.11597294   21.78866179   1     543  C
   30.92254810    3.78560791   21.80878773   1     544  C
    7.65121483    6.80852936   21.76271114   1     545  C
   11.89771500    6.48179942   21.73265559   1     546  C
   16.14516524    6.15719508   21.71650383   1     547  C
   20.39408823    5.83274797   21.72683879   1     548  C
   24.64380126    5.50615736   21.76173833   1     549  C
   28.89325608    5.17708689   21.79300986   1     550  C
   33.14193819    4.84648035   21.79556077   1     551  C
    5.62242657    8.19954420   21.76153388   1     552  C
    9.86876994    7.87163186   21.74209787   1     553  C
   14.11539380    7.54587873   21.71840543   1     554  C
   18.36368238    7.22121333   21.71482985   1     555  C
   22.61327737    6.89561173   21.73540017   1     556  C
   26.86334112    6.56779065   21.76857790   1     557  C
   31.11267690    6.23807234   21.78469645   1     558  C
   35.36072317    5.90771440   21.77798220   1     559  C
    7.83985920    9.26226306   21.74550719   1     560  C
   12.08595833    8.93534538   21.72528762   1     561  C
   16.33325884    8.60986555   21.71366922   1     562  C
   20.58238504    8.28444837   21.71804194   1     563  C
   24.83272309    7.95765409   21.74444079   1     564  C
   29.08274908    7.62896017   21.76686550   1     565  C
   33.33156973    7.29915297   21.76981022   1     566  C
   10.05673438   10.32556168   21.73192960   1     567  C
   14.30314219    9.99910253   21.71930933   1     568  C
   18.55149978    9.67329978   21.71423743   1     569  C
   22.80156953    9.34699765   21.72614953   1     570  C
   27.05211372    9.01928510   21.74891668   1     571  C
   31.30177276    8.69027953   21.75887508   1     572  C
   35.54973642    8.36085522   21.75554970   1     573  C
    8.02761437   11.71640761   21.73359086   1     574  C
   12.27351513   11.38913676   21.72593857   1     575  C
   16.52082191   11.06262163   21.72060345   1     576  C
   20.77009507   10.73618679   21.72013444   1     577  C
   25.02073464   10.40901609   21.73358426   1     578  C
   29.27119174   10.08088578   21.74571954   1     579  C
   33.52015664    9.75204557   21.74849351   1     580  C
   37.76711791    9.42334167   21.74324619   1     581  C
   10.24414227   12.77979952   21.72997081   1     582  C
   14.49048930   12.45251183   21.72837297   1     583  C
   18.73880822   12.12546681   21.72521972   1     584  C
   22.98903122   11.79835509   21.72552337   1     585  C
   27.23992809   11.47073224   21.73621557   1     586  C
   31.48983614   11.14271059   21.74096127   1     587  C
   35.73779437   10.81441742   21.73951919   1     588  C
   12.46071149   13.84299130   21.73410756   1     589  C
   16.70800843   13.51525681   21.73455382   1     590  C
   20.95739298   13.18770982   21.72965237   1     591  C
   25.20815794   12.86022310   21.72845201   1     592  C
   29.45886770   12.53271999   21.73324859   1     593  C
   33.70786736   12.20510220   21.73460500   1     594  C
   37.95472023   11.87736538   21.73167918   1     595  C
   10.43144938   15.23391410   21.73445859   1     596  C
   14.67792640   14.90571064   21.74237062   1     597  C
   18.92621688   14.57744072   21.74046932   1     598  C
   23.17642292   14.24957567   21.72981832   1     599  C
   27.42732885   13.92218242   21.72703265   1     600  C
   31.67723348   13.59520794   21.72832415   1     601  C
   35.92516611   13.26808166   21.72898710   1     602  C
   40.17126675   12.94072382   21.72880942   1     603  C
   12.64835089   16.29674504   21.74637348   1     604  C
   16.89568722   15.96783427   21.75128139   1     605  C
   21.14496991   15.63920279   21.74260504   1     606  C
   25.39555301   15.31146041   21.72707451   1     607  C
   29.64615188   14.98458994   21.72435740   1     608  C
   33.89509681   14.65825399   21.72541192   1     609  C
   38.14200439   14.33149693   21.72766095   1     610  C
   14.86594130   17.35884951   21.76058967   1     611  C
   19.11423671   17.02950612   21.75918518   1     612  C
   23.36421514   16.70089292   21.73964346   1     613  C
   27.61477579   16.37377475   21.72416812   1     614  C
   31.86456016   16.04770589   21.72304045   1     615  C
   36.11243670   15.72180380   21.72467797   1     616  C
   40.35871251   15.39490060   21.73129714   1     617  C
   12.83672530   18.75035980   21.76427139   1     618  C
   17.08428443   18.42041885   21.77348296   1     619  C
   21.33333523   18.09091524   21.76028327   1     620  C
   25.58354249   17.76287473   21.73400008   1     621  C
   29.83371981   17.43672477   21.72382487   1     622  C
   34.08263147   17.11146379   21.72327003   1     623  C
   38.32965298   16.78558762   21.72848870   1     624  C
   42.57564995   16.45798129   21.74451128   1     625  C
   15.05497968   19.81195138   21.78229031   1     626  C
   19.30326597   19.48160138   21.78122219   1     627  C
   23.55275161   19.15246661   21.75441453   1     628  C
   27.80284932   18.82551516   21.72998950   1     629  C
   32.05237192   18.50049755   21.72496197   1     630  C
   36.30023996   18.17563300   21.72686440   1     631  C
   40.54675249   17.84905478   21.74130897   1     632  C
   17.27389654   20.87302011   21.79683137   1     633  C
   21.52266897   20.54275914   21.77947543   1     634  C
   25.77234060   20.21461281   21.74515085   1     635  C
   30.02193611   19.88906288   21.72789428   1     636  C
   34.27069733   19.56476952   21.72663144   1     637  C
   38.51784708   19.23952855   21.73552792   1     638  C
   42.76436554   18.91181582   21.76137316   1     639  C
   15.24505711   22.26479966   21.80500546   1     640  C
   19.49335253   21.93379969   21.80152960   1     641  C
   23.74234240   21.60429816   21.76961367   1     642  C
   27.99182553   21.27750587   21.73729226   1     643  C
   32.24091306   20.95323224   21.72738702   1     644  C
   36.48886330   20.62914843   21.73075526   1     645  C
   40.73571018   20.30284382   21.75434587   1     646  C
   44.98248676   19.97367024   21.78468087   1     647  C
   17.46452703   23.32559011   21.81580521   1     648  C
   21.71307247   22.99488970   21.79549200   1     649  C
   25.96204107   22.66656014   21.75610002   1     650  C
   30.21103590   22.34144390   21.73221541   1     651  C
   34.45959938   22.01794298   21.72889420   1     652  C
   38.70703608   21.69310617   21.74400474   1     653  C
   42.95401865   21.36521722   21.78022429   1     654  C
   19.68423764   24.38629428   21.81651034   1     655  C
   23.93274904   24.05649397   21.78172283   1     656  C
   28.18151009   23.72984399   21.74403893   1     657  C
   32.43017373   23.40603140   21.72986914   1     658  C
   36.67822786   23.08247474   21.73404204   1     659  C
   40.92560400   22.75624015   21.76772671   1     660  C
   45.17290038   22.42677163   21.80422564   1     661  C
   17.65565224   25.77826800   21.82871337   1     662  C
   21.90402269   25.44731108   21.80673411   1     663  C
   26.15238747   25.11894396   21.76535557   1     664  C
   30.40086057   24.79403466   21.73667587   1     665  C
   34.64924615   24.47089756   21.72986944   1     666  C
   38.89702459   24.14638872   21.75205718   1     667  C
   43.14453486   23.81837866   21.79581866   1     668  C
   47.39230361   23.48770055   21.82133173   1     669  C
   19.87559039   26.83895877   21.82349846   1     670  C
   24.12371198   26.50903862   21.78858897   1     671  C
   28.37181612   26.18244130   21.74999126   1     672  C
   32.62006020   25.85892653   21.73153680   1     673  C
   36.86826900   25.53550860   21.73938505   1     674  C
   41.11609860   25.20932765   21.77920149   1     675  C
   45.36389998   24.87968552   21.81819964   1     676  C

siesta: Program's energy decomposition (eV):
siesta: Ebs     =    -35875.133696
siesta: Eions   =    190741.314426
siesta: Ena     =     42118.793994
siesta: Ekin    =     76830.445636
siesta: Enl     =     -3897.816343
siesta: Eso     =         0.000000
siesta: Edftu   =         0.000000
siesta: DEna    =      4426.988993
siesta: DUscf   =       225.038417
siesta: DUext   =         0.000000
siesta: Ex      =    -36057.744190
siesta: Ec      =     -3429.030329
siesta: Exc     =    -39486.774519
siesta: EbV     =         0.000000
siesta: eta*DQ  =         0.000000
siesta: Emadel  =         0.000000
siesta: Emeta   =         0.000000
siesta: Emolmec =         0.000000
siesta: Ekinion =         0.000000
siesta: Eharris =   -110590.828476
siesta: Etot    =   -110590.829699
siesta: FreeEng =   -110590.829699

siesta: Final energy (eV):
siesta:  Band Struct. =  -35875.133696
siesta:       Kinetic =   76830.445636
siesta:       Hartree = 1792462.479936
siesta:         Edftu =       0.000000
siesta:       Eso     =       0.000000
siesta:    Ext. field =       0.000000
siesta:         Exch. =  -36057.744190
siesta:         Corr. =   -3429.030329
siesta:     Bulk bias =       0.000000
siesta:   Exch.-corr. =  -39486.774519
siesta:  Ion-electron =-3654459.781900
siesta:       Ion-ion = 1714128.992599
siesta:       Ekinion =       0.000000
siesta: D3 dispersion =     -66.191450
siesta:         Total = -110590.829699
siesta:         Fermi =      -3.954565

siesta: Stress tensor (static) (eV/Ang**3):
siesta:    -0.016239    0.000004    0.000000
siesta:     0.000004   -0.016243   -0.000000
siesta:     0.000000   -0.000000   -0.002589

siesta: Cell volume =      35428.073894 Ang**3

siesta: Pressure (static):
siesta:                Solid            Molecule  Units
siesta:           0.00012732          0.00012729  Ry/Bohr**3
siesta:           0.01169029          0.01168680  eV/Ang**3
siesta:          18.72990685         18.72432125  kBar
(Free)E+ p_basis*V_orbitals  =     -110183.441023
(Free)Eharris+ p_basis*V_orbitals  =     -110183.439799

siesta: Electric dipole (a.u.)  =    0.000000   -0.000000   -0.000091
siesta: Electric dipole (Debye) =    0.000000   -0.000000   -0.000231

cite: Please see "Graphene.bib" for an exhaustive BiBTeX file.
cite: Please clearly indicate Siesta version in published work: 5.0.0-alpha-112-g6e4f53aee-dirty
cite: This calculation has made use of the following articles
cite: which are encouraged to be cited in a published work.
        Primary SIESTA paper
          DOI: www.doi.org/10.1088/0953-8984/14/11/302
 
 
>> End of run:   1-DEC-2024  17:11:53
Job completed
