SystemName     Graphene                                                                        
SystemLabel     Graphene                                                                        
MPI.Nprocs.SIESTA        64     # default value
SpinPolarized              F     # default value
NonCollinearSpin              F     # default value
SpinOrbit              F     # default value
#:block? SpinPolarized              F
#:defined? SpinPolarized              F
#:block? NonCollinearSpin              F
#:defined? NonCollinearSpin              F
#:block? SpinOrbit              F
#:defined? SpinOrbit              F
Spin     non-polarized                                                                   
TimeReversalSymmetry              T     # default value
DebugObjects.Node         0     # default value
DebugObjects              F     # default value
XML.Write              F     # default value
timer_report_threshold          0.000000000         # default value
UseParallelTimer              T     # default value
UseTreeTimer              F     # default value
timing-split-scf-steps              F     # default value
use-walltime              F     # default value
alloc_report_level         0     # default value
alloc_report_threshold          0.000000000         # default value
xc.functional     GGA                                                                             
xc.authors     PBE                                                                             
#:block? XC.hybrid              F
#:defined? XC.hybrid              F
#:block? XC.cocktail              F
#:defined? XC.cocktail              F
MM.Cutoff          30.00000000     Bohr     # default value
MM.UnitsEnergy     eV     # default value
MM.UnitsDistance     Ang     # default value
Atom.Debug              F     # default value
WriteIonPlotFiles              F     # default value
Atom.Debug.KB.Generation              F     # default value
KB.New.Reference.Orbitals              F     # default value
user-basis              F     # default value
user-basis-netcdf              F     # default value
#:block? DFTU.proj              F
#:defined? DFTU.proj              F
#:block? LDAU.proj              F
#:defined? LDAU.proj              F
Number_of_species              1
%block Chemical_species_label
 1  6   C
%endblock Chemical_species_label
ReparametrizePseudos              F     # default value
Restricted.Radial.Grid              T     # default value
Rmax.Radial.Grid          0.000000000         # default value
PAO.BasisSize     standard            # default value
PAO.BasisType     split          # default value
PAO.SoftDefault              F     # default value
PAO.SoftInnerRadius         0.9000000000         # default value
PAO.SoftPotential          40.00000000         # default value
PAO.SplitNorm         0.1500000000         # default value
PAO.SplitNormH         -1.000000000         # default value
PAO.Polarization.NonPerturbative              F     # default value
PAO.NonPerturbative.Polarization.Orbitals              F     # default value
PAO.Polarization.NonPerturbative.Fallback              F     # default value
%block PAO.Basis
 C    3      0.99941
  n=2   0   1   E   132.56520     4.52564
      6.00093
      1.00000
  n=2   1   1   E     6.06390     6.06460
      6.71080
      1.00000
  n=3   2   1   E    14.47828     4.32078
      6.22538
      1.00000
%endblock PAO.Basis
LDAU.ProjectorGenerationMethod         2     # default value
DFTU.ProjectorGenerationMethod         2     # default value
LDAU.EnergyShift         0.5000000000E-01 Ry     # default value
DFTU.EnergyShift         0.5000000000E-01 Ry     # default value
LDAU.CutoffNorm         0.9000000000         # default value
DFTU.CutoffNorm         0.9000000000         # default value
PAO.SoftDefault              F     # default value
PAO.SoftInnerRadius         0.9000000000         # default value
PAO.SoftPotential          40.00000000         # default value
LDAU.ThresholdTol         0.1000000000E-01     # default value
DFTU.ThresholdTol         0.1000000000E-01     # default value
LDAU.PopTol         0.1000000000E-02     # default value
DFTU.PopTol         0.1000000000E-02     # default value
LDAU.PotentialShift              F     # default value
DFTU.PotentialShift              F     # default value
LDAU.FirstIteration              F     # default value
DFTU.FirstIteration              F     # default value
FilterCutoff          0.000000000     Ry     # default value
FilterTol          0.000000000     Ry     # default value
spin-orbit-strength          1.000000000         # default value
Use.PSML.KB.Projectors              T     # default value
Use.PSML.Vlocal              T     # default value
PSML.KB.Projectors              T     # default value
PSML.Vlocal              T     # default value
psml.chlocal.build.r0         0.4000000000E-02     # default value
psml.chlocal.build.delta         0.5000000000E-02     # default value
psml.chlocal.build.poly_order_rlin         4     # default value
chlocal-use-charge-cutoff-for-vlocal-fit              F     # default value
psml.chlocal.build.rr1         0.1000000000E-02     # default value
psml.chlocal.build.exp_al          1.012000000         # default value
psml.chlocal.build.poly_order_rofi         7     # default value
PAO.EnergyShift         0.2000000000E-01 Ry     # default value
PAO.SplitTailNorm              F     # default value
PAO.FixSplitTable              F     # default value
PAO.NewSplitCode              F     # default value
PAO.Filter              F     # default value
PAO.Filter              F     # default value
PAO.Filter              F     # default value
PAO.OldStylePolorbs              T     # default value
PAO.SplitTailNorm              F     # default value
PAO.FixSplitTable              F     # default value
PAO.NewSplitCode              F     # default value
Vna.Filter              F     # default value
PCC.Filter              F     # default value
PAO.BasisType     split          # default value
Debug.Elec.Corr              F     # default value
Atom-Setup-Only              F     # default value
UseStructFile              F     # default value
MD.UseStructFile              F     # default value
#:block? LatticeParameters              F
#:block? LatticeVectors              T
%block LatticeVectors
LatticeConstant          1.889726125           Bohr
# above item originally: LatticeConstant          1.000000000     Ang       
      31.9563373996  -1.2300000000   0.0000000000
      17.0433799465  27.0600000000   0.0000000000
       0.0000000000   0.0000000000  40.0000000000
%endblock LatticeVectors
AtomicCoordinatesFormat     Ang                                                                             
NumberOfAtoms            676
#:block? AtomicCoordinatesOrigin              F
#:defined? AtomicCoordinatesOrigin              F
ZM.UnitsLength     Bohr           # default value
ZM.UnitsAngle     rad            # default value
ZM.ForceTolLength         0.1555740000E-02 Ry/Bohr     # default value
ZM.ForceTolAngle         0.3565490000E-02 Ry/rad     # default value
ZM.MaxDisplLength         0.2000000000     Bohr     # default value
ZM.MaxDisplAngle         0.3000000000E-02 rad     # default value
ZM.CalcAllForces              F     # default value
%block AtomicCoordinatesAndAtomicSpecies
 1.4202816622 0.0000000000 18.2887849183 1
 5.6811266488 0.0000000000 18.2887849183 1
 9.9419716354 0.0000000000 18.2887849183 1
 14.2028166221 0.0000000000 18.2887849183 1
 18.4636616087 0.0000000000 18.2887849183 1
 22.7245065953 0.0000000000 18.2887849183 1
 26.9853515819 0.0000000000 18.2887849183 1
 31.2461965685 0.0000000000 18.2887849183 1
 3.5507041555 1.2300000000 18.2887849183 1
 7.8115491421 1.2300000000 18.2887849183 1
 12.0723941288 1.2300000000 18.2887849183 1
 16.3332391154 1.2300000000 18.2887849183 1
 20.5940841020 1.2300000000 18.2887849183 1
 24.8549290886 1.2300000000 18.2887849183 1
 29.1157740752 1.2300000000 18.2887849183 1
 33.3766190619 1.2300000000 18.2887849183 1
 5.6811266488 2.4600000000 18.2887849183 1
 9.9419716354 2.4600000000 18.2887849183 1
 14.2028166221 2.4600000000 18.2887849183 1
 18.4636616087 2.4600000000 18.2887849183 1
 22.7245065953 2.4600000000 18.2887849183 1
 26.9853515819 2.4600000000 18.2887849183 1
 31.2461965685 2.4600000000 18.2887849183 1
 3.5507041555 3.6900000000 18.2887849183 1
 7.8115491421 3.6900000000 18.2887849183 1
 12.0723941288 3.6900000000 18.2887849183 1
 16.3332391154 3.6900000000 18.2887849183 1
 20.5940841020 3.6900000000 18.2887849183 1
 24.8549290886 3.6900000000 18.2887849183 1
 29.1157740752 3.6900000000 18.2887849183 1
 33.3766190619 3.6900000000 18.2887849183 1
 5.6811266488 4.9200000000 18.2887849183 1
 9.9419716354 4.9200000000 18.2887849183 1
 14.2028166221 4.9200000000 18.2887849183 1
 18.4636616087 4.9200000000 18.2887849183 1
 22.7245065953 4.9200000000 18.2887849183 1
 26.9853515819 4.9200000000 18.2887849183 1
 31.2461965685 4.9200000000 18.2887849183 1
 35.5070415552 4.9200000000 18.2887849183 1
 7.8115491421 6.1500000000 18.2887849183 1
 12.0723941288 6.1500000000 18.2887849183 1
 16.3332391154 6.1500000000 18.2887849183 1
 20.5940841020 6.1500000000 18.2887849183 1
 24.8549290886 6.1500000000 18.2887849183 1
 29.1157740752 6.1500000000 18.2887849183 1
 33.3766190619 6.1500000000 18.2887849183 1
 5.6811266488 7.3800000000 18.2887849183 1
 9.9419716354 7.3800000000 18.2887849183 1
 14.2028166221 7.3800000000 18.2887849183 1
 18.4636616087 7.3800000000 18.2887849183 1
 22.7245065953 7.3800000000 18.2887849183 1
 26.9853515819 7.3800000000 18.2887849183 1
 31.2461965685 7.3800000000 18.2887849183 1
 35.5070415552 7.3800000000 18.2887849183 1
 7.8115491421 8.6100000000 18.2887849183 1
 12.0723941288 8.6100000000 18.2887849183 1
 16.3332391154 8.6100000000 18.2887849183 1
 20.5940841020 8.6100000000 18.2887849183 1
 24.8549290886 8.6100000000 18.2887849183 1
 29.1157740752 8.6100000000 18.2887849183 1
 33.3766190619 8.6100000000 18.2887849183 1
 37.6374640485 8.6100000000 18.2887849183 1
 9.9419716354 9.8400000000 18.2887849183 1
 14.2028166221 9.8400000000 18.2887849183 1
 18.4636616087 9.8400000000 18.2887849183 1
 22.7245065953 9.8400000000 18.2887849183 1
 26.9853515819 9.8400000000 18.2887849183 1
 31.2461965685 9.8400000000 18.2887849183 1
 35.5070415552 9.8400000000 18.2887849183 1
 7.8115491421 11.0700000000 18.2887849183 1
 12.0723941288 11.0700000000 18.2887849183 1
 16.3332391154 11.0700000000 18.2887849183 1
 20.5940841020 11.0700000000 18.2887849183 1
 24.8549290886 11.0700000000 18.2887849183 1
 29.1157740752 11.0700000000 18.2887849183 1
 33.3766190619 11.0700000000 18.2887849183 1
 37.6374640485 11.0700000000 18.2887849183 1
 9.9419716354 12.3000000000 18.2887849183 1
 14.2028166221 12.3000000000 18.2887849183 1
 18.4636616087 12.3000000000 18.2887849183 1
 22.7245065953 12.3000000000 18.2887849183 1
 26.9853515819 12.3000000000 18.2887849183 1
 31.2461965685 12.3000000000 18.2887849183 1
 35.5070415552 12.3000000000 18.2887849183 1
 39.7678865418 12.3000000000 18.2887849183 1
 12.0723941288 13.5300000000 18.2887849183 1
 16.3332391154 13.5300000000 18.2887849183 1
 20.5940841020 13.5300000000 18.2887849183 1
 24.8549290886 13.5300000000 18.2887849183 1
 29.1157740752 13.5300000000 18.2887849183 1
 33.3766190619 13.5300000000 18.2887849183 1
 37.6374640485 13.5300000000 18.2887849183 1
 9.9419716354 14.7600000000 18.2887849183 1
 14.2028166221 14.7600000000 18.2887849183 1
 18.4636616087 14.7600000000 18.2887849183 1
 22.7245065953 14.7600000000 18.2887849183 1
 26.9853515819 14.7600000000 18.2887849183 1
 31.2461965685 14.7600000000 18.2887849183 1
 35.5070415552 14.7600000000 18.2887849183 1
 39.7678865418 14.7600000000 18.2887849183 1
 12.0723941288 15.9900000000 18.2887849183 1
 16.3332391154 15.9900000000 18.2887849183 1
 20.5940841020 15.9900000000 18.2887849183 1
 24.8549290886 15.9900000000 18.2887849183 1
 29.1157740752 15.9900000000 18.2887849183 1
 33.3766190619 15.9900000000 18.2887849183 1
 37.6374640485 15.9900000000 18.2887849183 1
 41.8983090351 15.9900000000 18.2887849183 1
 14.2028166221 17.2200000000 18.2887849183 1
 18.4636616087 17.2200000000 18.2887849183 1
 22.7245065953 17.2200000000 18.2887849183 1
 26.9853515819 17.2200000000 18.2887849183 1
 31.2461965685 17.2200000000 18.2887849183 1
 35.5070415552 17.2200000000 18.2887849183 1
 39.7678865418 17.2200000000 18.2887849183 1
 12.0723941288 18.4500000000 18.2887849183 1
 16.3332391154 18.4500000000 18.2887849183 1
 20.5940841020 18.4500000000 18.2887849183 1
 24.8549290886 18.4500000000 18.2887849183 1
 29.1157740752 18.4500000000 18.2887849183 1
 33.3766190619 18.4500000000 18.2887849183 1
 37.6374640485 18.4500000000 18.2887849183 1
 41.8983090351 18.4500000000 18.2887849183 1
 14.2028166221 19.6800000000 18.2887849183 1
 18.4636616087 19.6800000000 18.2887849183 1
 22.7245065953 19.6800000000 18.2887849183 1
 26.9853515819 19.6800000000 18.2887849183 1
 31.2461965685 19.6800000000 18.2887849183 1
 35.5070415552 19.6800000000 18.2887849183 1
 39.7678865418 19.6800000000 18.2887849183 1
 44.0287315284 19.6800000000 18.2887849183 1
 16.3332391154 20.9100000000 18.2887849183 1
 20.5940841020 20.9100000000 18.2887849183 1
 24.8549290886 20.9100000000 18.2887849183 1
 29.1157740752 20.9100000000 18.2887849183 1
 33.3766190619 20.9100000000 18.2887849183 1
 37.6374640485 20.9100000000 18.2887849183 1
 41.8983090351 20.9100000000 18.2887849183 1
 14.2028166221 22.1400000000 18.2887849183 1
 18.4636616087 22.1400000000 18.2887849183 1
 22.7245065953 22.1400000000 18.2887849183 1
 26.9853515819 22.1400000000 18.2887849183 1
 31.2461965685 22.1400000000 18.2887849183 1
 35.5070415552 22.1400000000 18.2887849183 1
 39.7678865418 22.1400000000 18.2887849183 1
 44.0287315284 22.1400000000 18.2887849183 1
 16.3332391154 23.3700000000 18.2887849183 1
 20.5940841020 23.3700000000 18.2887849183 1
 24.8549290886 23.3700000000 18.2887849183 1
 29.1157740752 23.3700000000 18.2887849183 1
 33.3766190619 23.3700000000 18.2887849183 1
 37.6374640485 23.3700000000 18.2887849183 1
 41.8983090351 23.3700000000 18.2887849183 1
 46.1591540217 23.3700000000 18.2887849183 1
 18.4636616087 24.6000000000 18.2887849183 1
 22.7245065953 24.6000000000 18.2887849183 1
 26.9853515819 24.6000000000 18.2887849183 1
 31.2461965685 24.6000000000 18.2887849183 1
 35.5070415552 24.6000000000 18.2887849183 1
 39.7678865418 24.6000000000 18.2887849183 1
 44.0287315284 24.6000000000 18.2887849183 1
 16.3332391154 25.8300000000 18.2887849183 1
 20.5940841020 25.8300000000 18.2887849183 1
 24.8549290886 25.8300000000 18.2887849183 1
 29.1157740752 25.8300000000 18.2887849183 1
 33.3766190619 25.8300000000 18.2887849183 1
 37.6374640485 25.8300000000 18.2887849183 1
 41.8983090351 25.8300000000 18.2887849183 1
 46.1591540217 25.8300000000 18.2887849183 1
 2.8405633244 0.0000000000 18.2887849183 1
 7.1014083110 0.0000000000 18.2887849183 1
 11.3622532977 0.0000000000 18.2887849183 1
 15.6230982843 0.0000000000 18.2887849183 1
 19.8839432709 0.0000000000 18.2887849183 1
 24.1447882575 0.0000000000 18.2887849183 1
 28.4056332441 0.0000000000 18.2887849183 1
 32.6664782307 0.0000000000 18.2887849183 1
 4.9709858177 1.2300000000 18.2887849183 1
 9.2318308043 1.2300000000 18.2887849183 1
 13.4926757910 1.2300000000 18.2887849183 1
 17.7535207776 1.2300000000 18.2887849183 1
 22.0143657642 1.2300000000 18.2887849183 1
 26.2752107508 1.2300000000 18.2887849183 1
 30.5360557374 1.2300000000 18.2887849183 1
 2.8405633244 2.4600000000 18.2887849183 1
 7.1014083110 2.4600000000 18.2887849183 1
 11.3622532977 2.4600000000 18.2887849183 1
 15.6230982843 2.4600000000 18.2887849183 1
 19.8839432709 2.4600000000 18.2887849183 1
 24.1447882575 2.4600000000 18.2887849183 1
 28.4056332441 2.4600000000 18.2887849183 1
 32.6664782307 2.4600000000 18.2887849183 1
 4.9709858177 3.6900000000 18.2887849183 1
 9.2318308043 3.6900000000 18.2887849183 1
 13.4926757910 3.6900000000 18.2887849183 1
 17.7535207776 3.6900000000 18.2887849183 1
 22.0143657642 3.6900000000 18.2887849183 1
 26.2752107508 3.6900000000 18.2887849183 1
 30.5360557374 3.6900000000 18.2887849183 1
 34.7969007241 3.6900000000 18.2887849183 1
 7.1014083110 4.9200000000 18.2887849183 1
 11.3622532977 4.9200000000 18.2887849183 1
 15.6230982843 4.9200000000 18.2887849183 1
 19.8839432709 4.9200000000 18.2887849183 1
 24.1447882575 4.9200000000 18.2887849183 1
 28.4056332441 4.9200000000 18.2887849183 1
 32.6664782307 4.9200000000 18.2887849183 1
 4.9709858177 6.1500000000 18.2887849183 1
 9.2318308043 6.1500000000 18.2887849183 1
 13.4926757910 6.1500000000 18.2887849183 1
 17.7535207776 6.1500000000 18.2887849183 1
 22.0143657642 6.1500000000 18.2887849183 1
 26.2752107508 6.1500000000 18.2887849183 1
 30.5360557374 6.1500000000 18.2887849183 1
 34.7969007241 6.1500000000 18.2887849183 1
 7.1014083110 7.3800000000 18.2887849183 1
 11.3622532977 7.3800000000 18.2887849183 1
 15.6230982843 7.3800000000 18.2887849183 1
 19.8839432709 7.3800000000 18.2887849183 1
 24.1447882575 7.3800000000 18.2887849183 1
 28.4056332441 7.3800000000 18.2887849183 1
 32.6664782307 7.3800000000 18.2887849183 1
 36.9273232174 7.3800000000 18.2887849183 1
 9.2318308043 8.6100000000 18.2887849183 1
 13.4926757910 8.6100000000 18.2887849183 1
 17.7535207776 8.6100000000 18.2887849183 1
 22.0143657642 8.6100000000 18.2887849183 1
 26.2752107508 8.6100000000 18.2887849183 1
 30.5360557374 8.6100000000 18.2887849183 1
 34.7969007241 8.6100000000 18.2887849183 1
 7.1014083110 9.8400000000 18.2887849183 1
 11.3622532977 9.8400000000 18.2887849183 1
 15.6230982843 9.8400000000 18.2887849183 1
 19.8839432709 9.8400000000 18.2887849183 1
 24.1447882575 9.8400000000 18.2887849183 1
 28.4056332441 9.8400000000 18.2887849183 1
 32.6664782307 9.8400000000 18.2887849183 1
 36.9273232174 9.8400000000 18.2887849183 1
 9.2318308043 11.0700000000 18.2887849183 1
 13.4926757910 11.0700000000 18.2887849183 1
 17.7535207776 11.0700000000 18.2887849183 1
 22.0143657642 11.0700000000 18.2887849183 1
 26.2752107508 11.0700000000 18.2887849183 1
 30.5360557374 11.0700000000 18.2887849183 1
 34.7969007241 11.0700000000 18.2887849183 1
 39.0577457107 11.0700000000 18.2887849183 1
 11.3622532977 12.3000000000 18.2887849183 1
 15.6230982843 12.3000000000 18.2887849183 1
 19.8839432709 12.3000000000 18.2887849183 1
 24.1447882575 12.3000000000 18.2887849183 1
 28.4056332441 12.3000000000 18.2887849183 1
 32.6664782307 12.3000000000 18.2887849183 1
 36.9273232174 12.3000000000 18.2887849183 1
 9.2318308043 13.5300000000 18.2887849183 1
 13.4926757910 13.5300000000 18.2887849183 1
 17.7535207776 13.5300000000 18.2887849183 1
 22.0143657642 13.5300000000 18.2887849183 1
 26.2752107508 13.5300000000 18.2887849183 1
 30.5360557374 13.5300000000 18.2887849183 1
 34.7969007241 13.5300000000 18.2887849183 1
 39.0577457107 13.5300000000 18.2887849183 1
 11.3622532977 14.7600000000 18.2887849183 1
 15.6230982843 14.7600000000 18.2887849183 1
 19.8839432709 14.7600000000 18.2887849183 1
 24.1447882575 14.7600000000 18.2887849183 1
 28.4056332441 14.7600000000 18.2887849183 1
 32.6664782307 14.7600000000 18.2887849183 1
 36.9273232174 14.7600000000 18.2887849183 1
 41.1881682040 14.7600000000 18.2887849183 1
 13.4926757910 15.9900000000 18.2887849183 1
 17.7535207776 15.9900000000 18.2887849183 1
 22.0143657642 15.9900000000 18.2887849183 1
 26.2752107508 15.9900000000 18.2887849183 1
 30.5360557374 15.9900000000 18.2887849183 1
 34.7969007241 15.9900000000 18.2887849183 1
 39.0577457107 15.9900000000 18.2887849183 1
 11.3622532977 17.2200000000 18.2887849183 1
 15.6230982843 17.2200000000 18.2887849183 1
 19.8839432709 17.2200000000 18.2887849183 1
 24.1447882575 17.2200000000 18.2887849183 1
 28.4056332441 17.2200000000 18.2887849183 1
 32.6664782307 17.2200000000 18.2887849183 1
 36.9273232174 17.2200000000 18.2887849183 1
 41.1881682040 17.2200000000 18.2887849183 1
 13.4926757910 18.4500000000 18.2887849183 1
 17.7535207776 18.4500000000 18.2887849183 1
 22.0143657642 18.4500000000 18.2887849183 1
 26.2752107508 18.4500000000 18.2887849183 1
 30.5360557374 18.4500000000 18.2887849183 1
 34.7969007241 18.4500000000 18.2887849183 1
 39.0577457107 18.4500000000 18.2887849183 1
 43.3185906973 18.4500000000 18.2887849183 1
 15.6230982843 19.6800000000 18.2887849183 1
 19.8839432709 19.6800000000 18.2887849183 1
 24.1447882575 19.6800000000 18.2887849183 1
 28.4056332441 19.6800000000 18.2887849183 1
 32.6664782307 19.6800000000 18.2887849183 1
 36.9273232174 19.6800000000 18.2887849183 1
 41.1881682040 19.6800000000 18.2887849183 1
 13.4926757910 20.9100000000 18.2887849183 1
 17.7535207776 20.9100000000 18.2887849183 1
 22.0143657642 20.9100000000 18.2887849183 1
 26.2752107508 20.9100000000 18.2887849183 1
 30.5360557374 20.9100000000 18.2887849183 1
 34.7969007241 20.9100000000 18.2887849183 1
 39.0577457107 20.9100000000 18.2887849183 1
 43.3185906973 20.9100000000 18.2887849183 1
 15.6230982843 22.1400000000 18.2887849183 1
 19.8839432709 22.1400000000 18.2887849183 1
 24.1447882575 22.1400000000 18.2887849183 1
 28.4056332441 22.1400000000 18.2887849183 1
 32.6664782307 22.1400000000 18.2887849183 1
 36.9273232174 22.1400000000 18.2887849183 1
 41.1881682040 22.1400000000 18.2887849183 1
 45.4490131906 22.1400000000 18.2887849183 1
 17.7535207776 23.3700000000 18.2887849183 1
 22.0143657642 23.3700000000 18.2887849183 1
 26.2752107508 23.3700000000 18.2887849183 1
 30.5360557374 23.3700000000 18.2887849183 1
 34.7969007241 23.3700000000 18.2887849183 1
 39.0577457107 23.3700000000 18.2887849183 1
 43.3185906973 23.3700000000 18.2887849183 1
 15.6230982843 24.6000000000 18.2887849183 1
 19.8839432709 24.6000000000 18.2887849183 1
 24.1447882575 24.6000000000 18.2887849183 1
 28.4056332441 24.6000000000 18.2887849183 1
 32.6664782307 24.6000000000 18.2887849183 1
 36.9273232174 24.6000000000 18.2887849183 1
 41.1881682040 24.6000000000 18.2887849183 1
 45.4490131906 24.6000000000 18.2887849183 1
 17.7535207776 25.8300000000 18.2887849183 1
 22.0143657642 25.8300000000 18.2887849183 1
 26.2752107508 25.8300000000 18.2887849183 1
 30.5360557374 25.8300000000 18.2887849183 1
 34.7969007241 25.8300000000 18.2887849183 1
 39.0577457107 25.8300000000 18.2887849183 1
 43.3185906973 25.8300000000 18.2887849183 1
 47.5794356839 25.8300000000 18.2887849183 1
 3.6347444906 0.9534319527 21.7033286584 1
 7.8829834269 0.6259171598 21.7033286584 1
 12.1312223633 0.2984023669 21.7033286584 1
 16.3794612996 -0.0291124260 21.7033286584 1
 20.6277002360 -0.3566272189 21.7033286584 1
 24.8759391724 -0.6841420118 21.7033286584 1
 29.1241781087 -1.0116568047 21.7033286584 1
 1.6051703993 2.3435502959 21.7033286584 1
 5.8534093357 2.0160355030 21.7033286584 1
 10.1016482720 1.6885207101 21.7033286584 1
 14.3498872084 1.3610059172 21.7033286584 1
 18.5981261448 1.0334911243 21.7033286584 1
 22.8463650811 0.7059763314 21.7033286584 1
 27.0946040175 0.3784615385 21.7033286584 1
 31.3428429538 0.0509467456 21.7033286584 1
 3.8238352444 3.4061538462 21.7033286584 1
 8.0720741808 3.0786390533 21.7033286584 1
 12.3203131171 2.7511242604 21.7033286584 1
 16.5685520535 2.4236094675 21.7033286584 1
 20.8167909899 2.0960946746 21.7033286584 1
 25.0650299262 1.7685798817 21.7033286584 1
 29.3132688626 1.4410650888 21.7033286584 1
 6.0425000895 4.4687573964 21.7033286584 1
 10.2907390259 4.1412426036 21.7033286584 1
 14.5389779622 3.8137278107 21.7033286584 1
 18.7872168986 3.4862130178 21.7033286584 1
 23.0354558350 3.1586982249 21.7033286584 1
 27.2836947713 2.8311834320 21.7033286584 1
 31.5319337077 2.5036686391 21.7033286584 1
 4.0129259982 5.8588757396 21.7033286584 1
 8.2611649346 5.5313609467 21.7033286584 1
 12.5094038710 5.2038461538 21.7033286584 1
 16.7576428073 4.8763313609 21.7033286584 1
 21.0058817437 4.5488165680 21.7033286584 1
 25.2541206801 4.2213017751 21.7033286584 1
 29.5023596164 3.8937869822 21.7033286584 1
 33.7505985528 3.5662721893 21.7033286584 1
 6.2315908433 6.9214792899 21.7033286584 1
 10.4798297797 6.5939644970 21.7033286584 1
 14.7280687161 6.2664497041 21.7033286584 1
 18.9763076524 5.9389349112 21.7033286584 1
 23.2245465888 5.6114201183 21.7033286584 1
 27.4727855252 5.2839053254 21.7033286584 1
 31.7210244615 4.9563905325 21.7033286584 1
 8.4502556885 7.9840828402 21.7033286584 1
 12.6984946248 7.6565680473 21.7033286584 1
 16.9467335612 7.3290532544 21.7033286584 1
 21.1949724975 7.0015384615 21.7033286584 1
 25.4432114339 6.6740236686 21.7033286584 1
 29.6914503703 6.3465088757 21.7033286584 1
 33.9396893066 6.0189940828 21.7033286584 1
 6.4206815972 9.3742011834 21.7033286584 1
 10.6689205336 9.0466863905 21.7033286584 1
 14.9171594699 8.7191715976 21.7033286584 1
 19.1653984063 8.3916568047 21.7033286584 1
 23.4136373426 8.0641420118 21.7033286584 1
 27.6618762790 7.7366272189 21.7033286584 1
 31.9101152154 7.4091124260 21.7033286584 1
 36.1583541517 7.0815976331 21.7033286584 1
 8.6393464423 10.4368047337 21.7033286584 1
 12.8875853787 10.1092899408 21.7033286584 1
 17.1358243150 9.7817751479 21.7033286584 1
 21.3840632514 9.4542603550 21.7033286584 1
 25.6323021878 9.1267455621 21.7033286584 1
 29.8805411241 8.7992307692 21.7033286584 1
 34.1287800605 8.4717159763 21.7033286584 1
 10.8580112874 11.4994082840 21.7033286584 1
 15.1062502238 11.1718934911 21.7033286584 1
 19.3544891601 10.8443786982 21.7033286584 1
 23.6027280965 10.5168639053 21.7033286584 1
 27.8509670329 10.1893491124 21.7033286584 1
 32.0992059692 9.8618343195 21.7033286584 1
 36.3474449056 9.5343195266 21.7033286584 1
 8.8284371961 12.8895266272 21.7033286584 1
 13.0766761325 12.5620118343 21.7033286584 1
 17.3249150689 12.2344970414 21.7033286584 1
 21.5731540052 11.9069822485 21.7033286584 1
 25.8213929416 11.5794674556 21.7033286584 1
 30.0696318780 11.2519526627 21.7033286584 1
 34.3178708143 10.9244378698 21.7033286584 1
 38.5661097507 10.5969230769 21.7033286584 1
 11.0471020412 13.9521301775 21.7033286584 1
 15.2953409776 13.6246153846 21.7033286584 1
 19.5435799140 13.2971005917 21.7033286584 1
 23.7918188503 12.9695857988 21.7033286584 1
 28.0400577867 12.6420710059 21.7033286584 1
 32.2882967231 12.3145562130 21.7033286584 1
 36.5365356594 11.9870414201 21.7033286584 1
 13.2657668863 15.0147337278 21.7033286584 1
 17.5140058227 14.6872189349 21.7033286584 1
 21.7622447591 14.3597041420 21.7033286584 1
 26.0104836954 14.0321893491 21.7033286584 1
 30.2587226318 13.7046745562 21.7033286584 1
 34.5069615682 13.3771597633 21.7033286584 1
 38.7552005045 13.0496449704 21.7033286584 1
 11.2361927951 16.4048520710 21.7033286584 1
 15.4844317315 16.0773372781 21.7033286584 1
 19.7326706678 15.7498224852 21.7033286584 1
 23.9809096042 15.4223076923 21.7033286584 1
 28.2291485405 15.0947928994 21.7033286584 1
 32.4773874769 14.7672781065 21.7033286584 1
 36.7256264133 14.4397633136 21.7033286584 1
 40.9738653496 14.1122485207 21.7033286584 1
 13.4548576402 17.4674556213 21.7033286584 1
 17.7030965766 17.1399408284 21.7033286584 1
 21.9513355129 16.8124260355 21.7033286584 1
 26.1995744493 16.4849112426 21.7033286584 1
 30.4478133856 16.1573964497 21.7033286584 1
 34.6960523220 15.8298816568 21.7033286584 1
 38.9442912584 15.5023668639 21.7033286584 1
 15.6735224853 18.5300591716 21.7033286584 1
 19.9217614217 18.2025443787 21.7033286584 1
 24.1700003580 17.8750295858 21.7033286584 1
 28.4182392944 17.5475147929 21.7033286584 1
 32.6664782307 17.2200000000 21.7033286584 1
 36.9147171671 16.8924852071 21.7033286584 1
 41.1629561035 16.5649704142 21.7033286584 1
 13.6439483940 19.9201775148 21.7033286584 1
 17.8921873304 19.5926627219 21.7033286584 1
 22.1404262668 19.2651479290 21.7033286584 1
 26.3886652031 18.9376331361 21.7033286584 1
 30.6369041395 18.6101183432 21.7033286584 1
 34.8851430759 18.2826035503 21.7033286584 1
 39.1333820122 17.9550887574 21.7033286584 1
 43.3816209486 17.6275739645 21.7033286584 1
 15.8626132391 20.9827810651 21.7033286584 1
 20.1108521755 20.6552662722 21.7033286584 1
 24.3590911119 20.3277514793 21.7033286584 1
 28.6073300482 20.0002366864 21.7033286584 1
 32.8555689846 19.6727218935 21.7033286584 1
 37.1038079210 19.3452071006 21.7033286584 1
 41.3520468573 19.0176923077 21.7033286584 1
 18.0812780842 22.0453846154 21.7033286584 1
 22.3295170206 21.7178698225 21.7033286584 1
 26.5777559570 21.3903550296 21.7033286584 1
 30.8259948933 21.0628402367 21.7033286584 1
 35.0742338297 20.7353254438 21.7033286584 1
 39.3224727661 20.4078106509 21.7033286584 1
 43.5707117024 20.0802958580 21.7033286584 1
 16.0517039930 23.4355029586 21.7033286584 1
 20.2999429293 23.1079881657 21.7033286584 1
 24.5481818657 22.7804733728 21.7033286584 1
 28.7964208021 22.4529585799 21.7033286584 1
 33.0446597384 22.1254437870 21.7033286584 1
 37.2928986748 21.7979289941 21.7033286584 1
 41.5411376112 21.4704142012 21.7033286584 1
 45.7893765475 21.1428994083 21.7033286584 1
 18.2703688381 24.4981065089 21.7033286584 1
 22.5186077745 24.1705917160 21.7033286584 1
 26.7668467108 23.8430769231 21.7033286584 1
 31.0150856472 23.5155621302 21.7033286584 1
 35.2633245835 23.1880473373 21.7033286584 1
 39.5115635199 22.8605325444 21.7033286584 1
 43.7598024563 22.5330177515 21.7033286584 1
 20.4890336832 25.5607100592 21.7033286584 1
 24.7372726196 25.2331952663 21.7033286584 1
 28.9855115559 24.9056804734 21.7033286584 1
 33.2337504923 24.5781656805 21.7033286584 1
 37.4819894286 24.2506508876 21.7033286584 1
 41.7302283650 23.9231360947 21.7033286584 1
 45.9784673014 23.5956213018 21.7033286584 1
 18.4594595919 26.9508284024 21.7033286584 1
 22.7076985283 26.6233136095 21.7033286584 1
 26.9559374647 26.2957988166 21.7033286584 1
 31.2041764010 25.9682840237 21.7033286584 1
 35.4524153374 25.6407692308 21.7033286584 1
 39.7006542737 25.3132544379 21.7033286584 1
 43.9488932101 24.9857396450 21.7033286584 1
 48.1971321465 24.6582248521 21.7033286584 1
 0.8025851996 1.1717751479 21.7033286584 1
 5.0508241360 0.8442603550 21.7033286584 1
 9.2990630724 0.5167455621 21.7033286584 1
 13.5473020087 0.1892307692 21.7033286584 1
 17.7955409451 -0.1382840237 21.7033286584 1
 22.0437798815 -0.4657988166 21.7033286584 1
 26.2920188178 -0.7933136095 21.7033286584 1
 30.5402577542 -1.1208284024 21.7033286584 1
 3.0212500448 2.2343786982 21.7033286584 1
 7.2694889811 1.9068639053 21.7033286584 1
 11.5177279175 1.5793491124 21.7033286584 1
 15.7659668538 1.2518343195 21.7033286584 1
 20.0142057902 0.9243195266 21.7033286584 1
 24.2624447266 0.5968047337 21.7033286584 1
 28.5106836629 0.2692899408 21.7033286584 1
 5.2399148899 3.2969822485 21.7033286584 1
 9.4881538262 2.9694674556 21.7033286584 1
 13.7363927626 2.6419526627 21.7033286584 1
 17.9846316989 2.3144378698 21.7033286584 1
 22.2328706353 1.9869230769 21.7033286584 1
 26.4811095717 1.6594082840 21.7033286584 1
 30.7293485080 1.3318934911 21.7033286584 1
 3.2103407986 4.6871005917 21.7033286584 1
 7.4585797350 4.3595857988 21.7033286584 1
 11.7068186713 4.0320710059 21.7033286584 1
 15.9550576077 3.7045562130 21.7033286584 1
 20.2032965440 3.3770414201 21.7033286584 1
 24.4515354804 3.0495266272 21.7033286584 1
 28.6997744168 2.7220118343 21.7033286584 1
 32.9480133531 2.3944970414 21.7033286584 1
 5.4290056437 5.7497041420 21.7033286584 1
 9.6772445801 5.4221893491 21.7033286584 1
 13.9254835164 5.0946745562 21.7033286584 1
 18.1737224528 4.7671597633 21.7033286584 1
 22.4219613892 4.4396449704 21.7033286584 1
 26.6702003255 4.1121301775 21.7033286584 1
 30.9184392619 3.7846153846 21.7033286584 1
 7.6476704888 6.8123076923 21.7033286584 1
 11.8959094252 6.4847928994 21.7033286584 1
 16.1441483615 6.1572781065 21.7033286584 1
 20.3923872979 5.8297633136 21.7033286584 1
 24.6406262343 5.5022485207 21.7033286584 1
 28.8888651706 5.1747337278 21.7033286584 1
 33.1371041070 4.8472189349 21.7033286584 1
 5.6180963975 8.2024260355 21.7033286584 1
 9.8663353339 7.8749112426 21.7033286584 1
 14.1145742703 7.5473964497 21.7033286584 1
 18.3628132066 7.2198816568 21.7033286584 1
 22.6110521430 6.8923668639 21.7033286584 1
 26.8592910794 6.5648520710 21.7033286584 1
 31.1075300157 6.2373372781 21.7033286584 1
 35.3557689521 5.9098224852 21.7033286584 1
 7.8367612426 9.2650295858 21.7033286584 1
 12.0850001790 8.9375147929 21.7033286584 1
 16.3332391154 8.6100000000 21.7033286584 1
 20.5814780517 8.2824852071 21.7033286584 1
 24.8297169881 7.9549704142 21.7033286584 1
 29.0779559245 7.6274556213 21.7033286584 1
 33.3261948608 7.2999408284 21.7033286584 1
 10.0554260878 10.3276331361 21.7033286584 1
 14.3036650241 10.0001183432 21.7033286584 1
 18.5519039605 9.6726035503 21.7033286584 1
 22.8001428968 9.3450887574 21.7033286584 1
 27.0483818332 9.0175739645 21.7033286584 1
 31.2966207696 8.6900591716 21.7033286584 1
 35.5448597059 8.3625443787 21.7033286584 1
 8.0258519965 11.7177514793 21.7033286584 1
 12.2740909329 11.3902366864 21.7033286584 1
 16.5223298692 11.0627218935 21.7033286584 1
 20.7705688056 10.7352071006 21.7033286584 1
 25.0188077419 10.4076923077 21.7033286584 1
 29.2670466783 10.0801775148 21.7033286584 1
 33.5152856147 9.7526627219 21.7033286584 1
 37.7635245510 9.4251479290 21.7033286584 1
 10.2445168416 12.7803550296 21.7033286584 1
 14.4927557780 12.4528402367 21.7033286584 1
 18.7409947143 12.1253254438 21.7033286584 1
 22.9892336507 11.7978106509 21.7033286584 1
 27.2374725870 11.4702958580 21.7033286584 1
 31.4857115234 11.1427810651 21.7033286584 1
 35.7339504598 10.8152662722 21.7033286584 1
 12.4631816867 13.8429585799 21.7033286584 1
 16.7114206231 13.5154437870 21.7033286584 1
 20.9596595594 13.1879289941 21.7033286584 1
 25.2078984958 12.8604142012 21.7033286584 1
 29.4561374322 12.5328994083 21.7033286584 1
 33.7043763685 12.2053846154 21.7033286584 1
 37.9526153049 11.8778698225 21.7033286584 1
 10.4336075954 15.2330769231 21.7033286584 1
 14.6818465318 14.9055621302 21.7033286584 1
 18.9300854682 14.5780473373 21.7033286584 1
 23.1783244045 14.2505325444 21.7033286584 1
 27.4265633409 13.9230177515 21.7033286584 1
 31.6748022773 13.5955029586 21.7033286584 1
 35.9230412136 13.2679881657 21.7033286584 1
 40.1712801500 12.9404733728 21.7033286584 1
 12.6522724405 16.2956804734 21.7033286584 1
 16.9005113769 15.9681656805 21.7033286584 1
 21.1487503133 15.6406508876 21.7033286584 1
 25.3969892496 15.3131360947 21.7033286584 1
 29.6452281860 14.9856213018 21.7033286584 1
 33.8934671224 14.6581065089 21.7033286584 1
 38.1417060587 14.3305917160 21.7033286584 1
 14.8709372856 17.3582840237 21.7033286584 1
 19.1191762220 17.0307692308 21.7033286584 1
 23.3674151584 16.7032544379 21.7033286584 1
 27.6156540947 16.3757396450 21.7033286584 1
 31.8638930311 16.0482248521 21.7033286584 1
 36.1121319675 15.7207100592 21.7033286584 1
 40.3603709038 15.3931952663 21.7033286584 1
 12.8413631944 18.7484023669 21.7033286584 1
 17.0896021308 18.4208875740 21.7033286584 1
 21.3378410671 18.0933727811 21.7033286584 1
 25.5860800035 17.7658579882 21.7033286584 1
 29.8343189398 17.4383431953 21.7033286584 1
 34.0825578762 17.1108284024 21.7033286584 1
 38.3307968126 16.7833136095 21.7033286584 1
 42.5790357489 16.4557988166 21.7033286584 1
 15.0600280395 19.8110059172 21.7033286584 1
 19.3082669759 19.4834911243 21.7033286584 1
 23.5565059122 19.1559763314 21.7033286584 1
 27.8047448486 18.8284615385 21.7033286584 1
 32.0529837849 18.5009467456 21.7033286584 1
 36.3012227213 18.1734319527 21.7033286584 1
 40.5494616577 17.8459171598 21.7033286584 1
 17.2786928846 20.8736094675 21.7033286584 1
 21.5269318210 20.5460946746 21.7033286584 1
 25.7751707573 20.2185798817 21.7033286584 1
 30.0234096937 19.8910650888 21.7033286584 1
 34.2716486300 19.5635502959 21.7033286584 1
 38.5198875664 19.2360355030 21.7033286584 1
 42.7681265028 18.9085207101 21.7033286584 1
 15.2491187933 22.2637278107 21.7033286584 1
 19.4973577297 21.9362130178 21.7033286584 1
 23.7455966661 21.6086982249 21.7033286584 1
 27.9938356024 21.2811834320 21.7033286584 1
 32.2420745388 20.9536686391 21.7033286584 1
 36.4903134752 20.6261538462 21.7033286584 1
 40.7385524115 20.2986390533 21.7033286584 1
 44.9867913479 19.9711242604 21.7033286584 1
 17.4677836384 23.3263313609 21.7033286584 1
 21.7160225748 22.9988165680 21.7033286584 1
 25.9642615112 22.6713017751 21.7033286584 1
 30.2125004475 22.3437869822 21.7033286584 1
 34.4607393839 22.0162721893 21.7033286584 1
 38.7089783203 21.6887573964 21.7033286584 1
 42.9572172566 21.3612426036 21.7033286584 1
 19.6864484835 24.3889349112 21.7033286584 1
 23.9346874199 24.0614201183 21.7033286584 1
 28.1829263563 23.7339053254 21.7033286584 1
 32.4311652926 23.4063905325 21.7033286584 1
 36.6794042290 23.0788757396 21.7033286584 1
 40.9276431654 22.7513609467 21.7033286584 1
 45.1758821017 22.4238461538 21.7033286584 1
 17.6568743923 25.7790532544 21.7033286584 1
 21.9051133286 25.4515384615 21.7033286584 1
 26.1533522650 25.1240236686 21.7033286584 1
 30.4015912014 24.7965088757 21.7033286584 1
 34.6498301377 24.4689940828 21.7033286584 1
 38.8980690741 24.1414792899 21.7033286584 1
 43.1463080105 23.8139644970 21.7033286584 1
 47.3945469468 23.4864497041 21.7033286584 1
 19.8755392374 26.8416568047 21.7033286584 1
 24.1237781737 26.5141420118 21.7033286584 1
 28.3720171101 26.1866272189 21.7033286584 1
 32.6202560465 25.8591124260 21.7033286584 1
 36.8684949828 25.5315976331 21.7033286584 1
 41.1167339192 25.2040828402 21.7033286584 1
 45.3649728556 24.8765680473 21.7033286584 1
%endblock AtomicCoordinatesAndAtomicSpecies
MD.UseSaveXV              T
MD.UseSaveZM              F     # default value
WriteCoorInitial              T     # default value
MD.TypeOfRun     CG                                                                              
MD.TypeOfRun     CG                                                                              
MD.InitialTimeStep         1     # default value
MD.FinalTimeStep         1     # default value
MD.TypeOfRun     CG                                                                              
MaxBondDistance          6.000000000     Bohr     # default value
Output-Structure-Only              F     # default value
WriteCoorXmol              F     # default value
#:physical? MaxWalltime              F
MaxWalltime         0.1797693135+309     # default value
#:physical? MaxWalltime.Slack              F
MaxWalltime.Slack          5.000000000         # default value
HSetupOnly              F     # default value
LongOutput              F     # default value
WriteDenchar              F     # default value
WriteMullikenPop         0     # default value
WriteOrbMom              F     # default value
WriteHirshfeldPop              F     # default value
WriteVoronoiPop              F     # default value
PartialChargesAtEveryGeometry              F     # default value
PartialChargesAtEveryScfStep              F     # default value
MeshCutoff          300.0000000             Ry
# above item originally: MeshCutoff          300.0000000     Ry        
NetCharge          0.000000000         # default value
MinSCFIterations              3
MaxSCFIterations            300
SCF.MustConverge              T     # default value
#:block? TS.MixH              F
#:defined? TS.MixH              F
#:block? MixHamiltonian              F
#:defined? MixHamiltonian              F
#:block? MixCharge              F
#:defined? MixCharge              F
TS.MixH              T     # default value
MixHamiltonian              T     # default value
MixCharge              F     # default value
SCF.Mix     Hamiltonian     # default value
Compat-pre-v4-DM-H              F     # default value
SCF.MixAfterConvergence              F     # default value
SCF.Recompute-H-After-Scf              F     # default value
DM.NumberPulay         0     # default value
DM.NumberBroyden         0     # default value
DM.FIRE.Mixing              F     # default value
DM.MixSCF1              T     # default value
SCF.Mix.First              T
SCF.Mix.First.Force              F     # default value
DM.PulayOnFile              F     # default value
DM.MixingWeight         0.2500000000         # default value
DM.OccupancyTolerance         0.1000000000E-11     # default value
DM.NumberKick         0     # default value
DM.KickMixingWeight         0.5000000000         # default value
DM.RequireHarrisConvergence              F     # default value
SCF.Harris.Converge              F     # default value
DM.HarrisTolerance         0.7349864435E-05 Ry     # default value
SCF.Harris.Tolerance         0.7349864435E-05 Ry     # default value
SCF.DM.Converge              T     # default value
DM.Tolerance         0.1000000000E-03     # default value
SCF.DM.Tolerance         0.1000000000E-03
SCF.EDM.Converge              F     # default value
SCF.EDM.Tolerance         0.7349864435E-04 Ry     # default value
SCF.H.Converge              T     # default value
SCF.H.Tolerance         0.7349864435E-04 Ry     # default value
DM.RequireEnergyConvergence              F     # default value
SCF.FreeE.Converge              F     # default value
DM.EnergyTolerance         0.7349864435E-05 Ry     # default value
SCF.FreeE.Tolerance         0.7349864435E-05 Ry     # default value
MonitorForcesInSCF              F     # default value
SCF.MonitorForces              F     # default value
DFTD3              T
UseSaveData              F     # default value
DM.UseSaveDM              T
NeglNonOverlapInt              F     # default value
SolutionMethod     diagon                                                                          
ElectronicTemperature         0.1900000000E-02 Ry     # default value
FixSpin              F     # default value
Spin.Fix              F     # default value
ON.MaxNumIter      1000     # default value
ON.etol         0.1000000000E-07     # default value
ON.eta          0.000000000     Ry     # default value
ON.eta_alpha          0.000000000     Ry     # default value
ON.eta_beta          0.000000000     Ry     # default value
On.RcLWF          9.500000000     Bohr     # default value
ON.UseSaveLWF              F     # default value
ON.functional     kim     # default value
ON.ChemicalPotentialUse              F     # default value
ON.ChemicalPotential              F     # default value
ON.ChemicalPotentialRc          9.500000000     Bohr     # default value
ON.ChemicalPotentialTemperature         0.5000000000E-01 Ry     # default value
ON.ChemicalPotentialOrder       100     # default value
TDED.WF.Initialize              F     # default value
TDED.Saverho              F     # default value
TDED.Nsaverho       100     # default value
TDED.Write.Etot              T     # default value
TDED.Write.Eig              F     # default value
TDED.Write.Dipole              F     # default value
TDED.Extrapolate              F     # default value
TDED.TimeStep         0.1000000000E-02 fs     # default value
TDED.Nsteps         1     # default value
TDED.Extrapolate.Substeps         3     # default value
TDED.Inverse.Linear              T     # default value
TDED.WF.Save              F     # default value
MD.VariableCell              F
compat-pre-v4-dynamics              F     # default value
MD.TypeOfRun     CG                                                                              
MD.UseSaveCG              F     # default value
Optim.Broyden              F     # default value
#:block? Optim.Broyden              F
#:defined? Optim.Broyden              F
MD.NumCGsteps            200
MD.Steps       200     # default value
MD.MaxCGDispl         0.5000000000           Bohr
# above item originally: MD.MaxCGDispl         0.5000000000     Bohr      
MD.MaxDispl         0.5000000000     Bohr     # default value
MD.MaxForceTol         0.3889380762E-03    Ry/Bohr
# above item originally: MD.MaxForceTol         0.1000000000E-01 eV/Ang    
MD.MaxStressTol         0.6797730000E-04 Ry/Bohr**3     # default value
GeometryMustConverge              F     # default value
MD.InitialTimeStep         1     # default value
#:block? MD.Steps              F
#:defined? MD.Steps              F
MD.FinalTimeStep         1     # default value
MD.LengthTimeStep          1.000000000     fs     # default value
MD.Quench              F     # default value
MD.FireQuench              F     # default value
MD.InitialTemperature          0.000000000     K     # default value
MD.TargetTemperature          0.000000000     K     # default value
#:block? MD.TargetPressure              F
#:defined? MD.TargetPressure              F
MD.TargetPressure          0.000000000     Ry/Bohr**3     # default value
Target.Pressure          0.000000000     Ry/Bohr**3     # default value
MD.NoseMass          100.0000000     Ry*fs**2     # default value
MD.ParrinelloRahmanMass          100.0000000     Ry*fs**2     # default value
MD.AnnealOption     TemperatureAndPressure     # default value
MD.TauRelax          100.0000000     fs     # default value
MD.BulkModulus         0.6797730000E-02 Ry/Bohr**3     # default value
MD.FCDispl         0.4000000000E-01 Bohr     # default value
MD.FCfirst         1     # default value
MD.FClast       676     # default value
UseSpatialDecomposition              F     # default value
UseDomainDecomposition              F     # default value
SCF.Mix.Spin     all     # default value
Mixer.Debug              F     # default value
Mixer.Debug.MPI              F     # default value
DM.NumberPulay         2     # default value
DM.NumberBroyden         0     # default value
DM.MixingWeight         0.2500000000         # default value
DM.NumberKick         0     # default value
DM.KickMixingWeight         0.5000000000         # default value
SCF.LinearMixingAfterPulay              F     # default value
SCF.MixingWeightAfterPulay         0.2500000000         # default value
SCF.Mixer.History             12
SCF.Mixer.Weight         0.1000000000    
SCF.Mixer.Kick         0     # default value
SCF.Mixer.Kick.Weight         0.5000000000         # default value
SCF.Mixer.Restart         0     # default value
SCF.Mixer.Restart.Save         1     # default value
SCF.Mixer.Method     Pulay     # default value
SCF.Mixer.Variant     original     # default value
SCF.Mixer.Linear.After        -1     # default value
SCF.Mixer.Linear.After.Weight         0.2500000000         # default value
#:block? ChargeGeometries              F
#:defined? ChargeGeometries              F
#:block? ChargeGeometries              F
#:defined? ChargeGeometries              F
BulkBias.V          0.000000000     Ry     # default value
BulkBias.Voltage          0.000000000     Ry     # default value
BulkBias.Tolerance         0.1000000000E-14     # default value
BulkBias.Current              T     # default value
Harris_functional              F     # default value
ForceAuxCell              F     # default value
#:block? Optim.Broyden.History.Steps              F
#:defined? Optim.Broyden.History.Steps              F
#:block? Optim.Broyden.Cycle.On.Maxit              F
#:defined? Optim.Broyden.Cycle.On.Maxit              F
#:block? Optim.Broyden.Variable.Weight              F
#:defined? Optim.Broyden.Variable.Weight              F
#:block? Optim.Broyden.Debug              F
#:defined? Optim.Broyden.Debug              F
#:block? Optim.Broyden.Initial.Inverse.Jacobian              F
#:defined? Optim.Broyden.Initial.Inverse.Jacobian              F
Write.Kpoints              F     # default value
Write.Forces              F     # default value
Write.DM              T     # default value
Write.DM.End.Of.Cycle              T     # default value
Write.H              F     # default value
Write.H.End.Of.Cycle              F     # default value
Write.DM.NetCDF              F     # default value
WriteDM.History.NetCDF              F     # default value
WriteDMHS.NetCDF              F     # default value
WriteDMHS.History.NetCDF              F     # default value
SCF.Read.Charge.NetCDF              F     # default value
SCF.Read.Deformation.Charge.NetCDF              F     # default value
Write.TSHS.History              F     # default value
SaveInitialChargeDensity              F     # default value
AnalyzeChargeDensityOnly              F     # default value
UseNewDiagk              F     # default value
Diag.WFS.Cache     none     # default value
WriteBands              F     # default value
WriteKbands              F     # default value
WriteEigenvalues              F     # default value
WriteCoorStep              F     # default value
WriteMDhistory              F     # default value
WriteMDXmol              T     # default value
WriteOrbitalIndex              T     # default value
Write.Graphviz     none     # default value
WriteCoorStep              F     # default value
SaveHS              F     # default value
ReInitialiseDM              T     # default value
DM.AllowReuse              T     # default value
DM.AllowExtrapolation              T     # default value
DM.History.Depth         1     # default value
DM.NormalizationTolerance         0.1000000000E-04     # default value
DM.NormalizeDuringSCF              T     # default value
MullikenInSCF              F     # default value
SpinInSCF              F     # default value
WarningMinimumAtomicDistance          1.000000000     Bohr     # default value
BornCharge              F     # default value
ChangeKgridInMD              F     # default value
MD.RelaxCellOnly              F     # default value
MD.RemoveIntraMolecularPressure              F     # default value
COOP.Write              F     # default value
SaveRho              F     # default value
SaveDeltaRho              F     # default value
SaveRhoXC              F     # default value
SaveElectrostaticPotential              F     # default value
SaveNeutralAtomPotential              F     # default value
SaveTotalPotential              F     # default value
SaveIonicCharge              F     # default value
SaveBaderCharge              F     # default value
SaveTotalCharge              F     # default value
Siesta2Wannier90.WriteMmn              F     # default value
Siesta2Wannier90.WriteUnk              F     # default value
Siesta2Wannier90.WriteAmn              F     # default value
Siesta2Wannier90.WriteEig              F     # default value
#:block? Siesta2Wannier90.NumberOfBandsUp              F
#:defined? Siesta2Wannier90.NumberOfBandsUp              F
#:block? Siesta2Wannier90.NumberOfBandsDown              F
#:defined? Siesta2Wannier90.NumberOfBandsDown              F
#:block? Siesta2Wannier90.NumberOfBands              F
#:defined? Siesta2Wannier90.NumberOfBands              F
Siesta2Wannier90.NumberOfBandsUp         0     # default value
Siesta2Wannier90.NumberOfBandsDown         0     # default value
Siesta2Wannier90.NumberOfBands         0     # default value
CDF.Save              F     # default value
CDF.Compress         0     # default value
CDF.MPI              F     # default value
CDF.Read.Parallel              F     # default value
#:block-line-count? Wannier.Manifolds   0
Wannier.Manifolds.R.between              F     # default value
Wannier.Manifold.IndexPerturbed         1     # default value
Wannier.Mmn.Diagonal              F     # default value
DFTD3.BJdamping              T     # default value
DFTD3.UseXCDefaults              T     # default value
DFTD3.s9          1.000000000         # default value
DFTD3.s6          1.000000000         # default value
DFTD3.rs6          1.000000000         # default value
DFTD3.s8          1.000000000         # default value
DFTD3.rs8          1.000000000         # default value
DFTD3.a1         0.4000000000         # default value
DFTD3.a2          5.000000000         # default value
DFTD3.alpha          14.00000000         # default value
DFTD3.s9          1.000000000         # default value
DFTD3.CoordinationCutoff          10.00000000     Bohr     # default value
DFTD3.2BodyCutoff          60.00000000     Bohr     # default value
DFTD3.3BodyCutoff          40.00000000     Bohr     # default value
DM.AllowReuse              T     # default value
DM.AllowExtrapolation              T     # default value
DM.AllowExtrapolation              F     # default value
NumberOfEigenStates      6084     # default value
RcSpatial          0.000000000     Bohr     # default value
ProcessorGridX         1     # default value
ProcessorGridY         1     # default value
ProcessorGridZ         1     # default value
FFT.ProcessorY.traditional              F     # default value
processorY         8     # default value
blocksize        64     # default value
Spin.Spiral              F     # default value
TimeReversalSymmetryForKpoints              T     # default value
%block kgrid.MonkhorstPack
    1  0  0  0.0
    0  1  0  0.0
    0  0  1  0.0
%endblock kgrid.MonkhorstPack
#:block? ProjectedDensityOfStates              F
#:block? LocalDensityOfStates              F
Diag.ProcessorY         8     # default value
Diag.BlockSize        64     # default value
Diag.Use2D              T     # default value
Diag.UpperLower     lower     # default value
Diag.DivideAndConquer              T     # default value
Diag.MRRR              F     # default value
Diag.NoExpert              F     # default value
Diag.Algorithm     Divide-and-Conquer     # default value
Diag.AbsTol         0.1000000000E-15     # default value
Diag.OrFac         0.1000000000E-05     # default value
Diag.Memory          1.000000000         # default value
#:block? BandLines              F
#:defined? BandLines              F
#:block? BandPoints              F
#:defined? BandPoints              F
LongOutput              F     # default value
WriteWaveFunctions              F     # default value
#:block-line-count? MetaForce (iirrr)   0
%block Geometry.Constraints
  center all 0.0 0.0 1.0
%endblock Geometry.Constraints
%block Geometry.Constraints
  center all 0.0 0.0 1.0
%endblock Geometry.Constraints
#:block? TS.BufferAtomsLeft              F
#:defined? TS.BufferAtomsLeft              F
#:block? TS.BufferAtomsRight              F
#:defined? TS.BufferAtomsRight              F
#:list? TS.Atoms.Buffer              F
TS.HS.Save              F     # default value
TS.DE.Save              F     # default value
TS.onlyS              F     # default value
TS.S.Save              F     # default value
Spin.Spiral              F     # default value
TimeReversalSymmetryForKpoints              T     # default value
#:list? TS.kgrid.MonkhorstPack                                                                                                                                                                                                                                                        F
#:block? TS.kgrid.Cutoff                                                                                                                                                                                                                                                               F
#:defined? TS.kgrid.Cutoff                                                                                                                                                                                                                                                               F
#:block? TS.kgrid.File                                                                                                                                                                                                                                                                 F
#:defined? TS.kgrid.File                                                                                                                                                                                                                                                                 F
AtomicCoordinatesFormat     Ang                                                                             
AtomCoorFormatOut     Ang                        # default value
LatticeConstant          1.889726125           Bohr
# above item originally: LatticeConstant          1.000000000     Ang       
debug-folding              F     # default value
Save.Overlap.Gradient              F     # default value
Sonly              F     # default value
File.DM.Init     Graphene.DM     # default value
DM.Init     atomic     # default value
DM.Init.RandomStates         0     # default value
Sonly              F     # default value
Debug.DHSCF              F     # default value
MeshSubDivisions         2     # default value
#:list? Mesh.Sizes              F
#:defined? MeshCutoff              T
#:block? MeshSizes              F
#:defined? MeshSizes              F
#:defined? MeshCutoff              T
XC.Use.BSC.CellXC              F     # default value
PROCS_PER_NODE         4     # default value
PROCS_PER_NODE         4     # default value
DirectPhi              F     # default value
SimulateDoping              F     # default value
Slab.DipoleCorrection     none     # default value
Read-H-from-file              F     # default value
timing-split-scf-steps              F     # default value
SingleExcitation              F     # default value
OccupationFunction     FD     # default value
OccupationFunction     FD     # default value
timing-split-scf-steps              F     # default value
timing-split-scf-steps              F     # default value
timing-split-scf-steps              F     # default value
timing-split-scf-steps              F     # default value
timing-split-scf-steps              F     # default value
timing-split-scf-steps              F     # default value
timing-split-scf-steps              F     # default value
timing-split-scf-steps              F     # default value
timing-split-scf-steps              F     # default value
compute-forces              T     # default value
#:list? Grid.CellSampling              F
#:list? DFTD3.Periodic              F
debug-folding              F     # default value
Save.Overlap.Gradient              F     # default value
Sonly              F     # default value
UseDIISforDMExtrapolation              T     # default value
UseSVDExperimental              F     # default value
UseSVD              T     # default value
Sonly              F     # default value
#:list? Mesh.Sizes              F
#:defined? MeshCutoff              T
#:block? MeshSizes              F
#:defined? MeshSizes              F
#:defined? MeshCutoff              T
XC.Use.BSC.CellXC              F     # default value
PROCS_PER_NODE         4     # default value
PROCS_PER_NODE         4     # default value
Read-H-from-file              F     # default value
timing-split-scf-steps              F     # default value
timing-split-scf-steps              F     # default value
timing-split-scf-steps              F     # default value
timing-split-scf-steps              F     # default value
timing-split-scf-steps              F     # default value
timing-split-scf-steps              F     # default value
compute-forces              T     # default value
#:list? DFTD3.Periodic              F
debug-folding              F     # default value
Save.Overlap.Gradient              F     # default value
Sonly              F     # default value
UseDIISforDMExtrapolation              T     # default value
UseSVDExperimental              F     # default value
UseSVD              T     # default value
Sonly              F     # default value
#:list? Mesh.Sizes              F
#:defined? MeshCutoff              T
#:block? MeshSizes              F
#:defined? MeshSizes              F
#:defined? MeshCutoff              T
XC.Use.BSC.CellXC              F     # default value
PROCS_PER_NODE         4     # default value
PROCS_PER_NODE         4     # default value
Read-H-from-file              F     # default value
timing-split-scf-steps              F     # default value
timing-split-scf-steps              F     # default value
timing-split-scf-steps              F     # default value
timing-split-scf-steps              F     # default value
timing-split-scf-steps              F     # default value
timing-split-scf-steps              F     # default value
compute-forces              T     # default value
#:list? DFTD3.Periodic              F
debug-folding              F     # default value
Save.Overlap.Gradient              F     # default value
Sonly              F     # default value
UseDIISforDMExtrapolation              T     # default value
UseSVDExperimental              F     # default value
UseSVD              T     # default value
Sonly              F     # default value
#:list? Mesh.Sizes              F
#:defined? MeshCutoff              T
#:block? MeshSizes              F
#:defined? MeshSizes              F
#:defined? MeshCutoff              T
XC.Use.BSC.CellXC              F     # default value
PROCS_PER_NODE         4     # default value
PROCS_PER_NODE         4     # default value
Read-H-from-file              F     # default value
timing-split-scf-steps              F     # default value
timing-split-scf-steps              F     # default value
timing-split-scf-steps              F     # default value
timing-split-scf-steps              F     # default value
compute-forces              T     # default value
#:list? DFTD3.Periodic              F
debug-folding              F     # default value
Save.Overlap.Gradient              F     # default value
Sonly              F     # default value
UseDIISforDMExtrapolation              T     # default value
UseSVDExperimental              F     # default value
UseSVD              T     # default value
Sonly              F     # default value
#:list? Mesh.Sizes              F
#:defined? MeshCutoff              T
#:block? MeshSizes              F
#:defined? MeshSizes              F
#:defined? MeshCutoff              T
XC.Use.BSC.CellXC              F     # default value
PROCS_PER_NODE         4     # default value
PROCS_PER_NODE         4     # default value
Read-H-from-file              F     # default value
timing-split-scf-steps              F     # default value
timing-split-scf-steps              F     # default value
timing-split-scf-steps              F     # default value
timing-split-scf-steps              F     # default value
compute-forces              T     # default value
#:list? DFTD3.Periodic              F
debug-folding              F     # default value
Save.Overlap.Gradient              F     # default value
Sonly              F     # default value
UseDIISforDMExtrapolation              T     # default value
UseSVDExperimental              F     # default value
UseSVD              T     # default value
Sonly              F     # default value
#:list? Mesh.Sizes              F
#:defined? MeshCutoff              T
#:block? MeshSizes              F
#:defined? MeshSizes              F
#:defined? MeshCutoff              T
XC.Use.BSC.CellXC              F     # default value
PROCS_PER_NODE         4     # default value
PROCS_PER_NODE         4     # default value
Read-H-from-file              F     # default value
timing-split-scf-steps              F     # default value
timing-split-scf-steps              F     # default value
timing-split-scf-steps              F     # default value
timing-split-scf-steps              F     # default value
compute-forces              T     # default value
#:list? DFTD3.Periodic              F
debug-folding              F     # default value
Save.Overlap.Gradient              F     # default value
Sonly              F     # default value
UseDIISforDMExtrapolation              T     # default value
UseSVDExperimental              F     # default value
UseSVD              T     # default value
Sonly              F     # default value
#:list? Mesh.Sizes              F
#:defined? MeshCutoff              T
#:block? MeshSizes              F
#:defined? MeshSizes              F
#:defined? MeshCutoff              T
XC.Use.BSC.CellXC              F     # default value
PROCS_PER_NODE         4     # default value
PROCS_PER_NODE         4     # default value
Read-H-from-file              F     # default value
timing-split-scf-steps              F     # default value
timing-split-scf-steps              F     # default value
timing-split-scf-steps              F     # default value
timing-split-scf-steps              F     # default value
timing-split-scf-steps              F     # default value
compute-forces              T     # default value
#:list? DFTD3.Periodic              F
debug-folding              F     # default value
Save.Overlap.Gradient              F     # default value
Sonly              F     # default value
UseDIISforDMExtrapolation              T     # default value
UseSVDExperimental              F     # default value
UseSVD              T     # default value
Sonly              F     # default value
#:list? Mesh.Sizes              F
#:defined? MeshCutoff              T
#:block? MeshSizes              F
#:defined? MeshSizes              F
#:defined? MeshCutoff              T
XC.Use.BSC.CellXC              F     # default value
PROCS_PER_NODE         4     # default value
PROCS_PER_NODE         4     # default value
Read-H-from-file              F     # default value
timing-split-scf-steps              F     # default value
timing-split-scf-steps              F     # default value
timing-split-scf-steps              F     # default value
timing-split-scf-steps              F     # default value
timing-split-scf-steps              F     # default value
timing-split-scf-steps              F     # default value
timing-split-scf-steps              F     # default value
timing-split-scf-steps              F     # default value
compute-forces              T     # default value
#:list? DFTD3.Periodic              F
debug-folding              F     # default value
Save.Overlap.Gradient              F     # default value
Sonly              F     # default value
UseDIISforDMExtrapolation              T     # default value
UseSVDExperimental              F     # default value
UseSVD              T     # default value
Sonly              F     # default value
#:list? Mesh.Sizes              F
#:defined? MeshCutoff              T
#:block? MeshSizes              F
#:defined? MeshSizes              F
#:defined? MeshCutoff              T
XC.Use.BSC.CellXC              F     # default value
PROCS_PER_NODE         4     # default value
PROCS_PER_NODE         4     # default value
Read-H-from-file              F     # default value
timing-split-scf-steps              F     # default value
timing-split-scf-steps              F     # default value
timing-split-scf-steps              F     # default value
timing-split-scf-steps              F     # default value
timing-split-scf-steps              F     # default value
timing-split-scf-steps              F     # default value
compute-forces              T     # default value
#:list? DFTD3.Periodic              F
debug-folding              F     # default value
Save.Overlap.Gradient              F     # default value
Sonly              F     # default value
UseDIISforDMExtrapolation              T     # default value
UseSVDExperimental              F     # default value
UseSVD              T     # default value
Sonly              F     # default value
#:list? Mesh.Sizes              F
#:defined? MeshCutoff              T
#:block? MeshSizes              F
#:defined? MeshSizes              F
#:defined? MeshCutoff              T
XC.Use.BSC.CellXC              F     # default value
PROCS_PER_NODE         4     # default value
PROCS_PER_NODE         4     # default value
Read-H-from-file              F     # default value
timing-split-scf-steps              F     # default value
timing-split-scf-steps              F     # default value
timing-split-scf-steps              F     # default value
timing-split-scf-steps              F     # default value
timing-split-scf-steps              F     # default value
timing-split-scf-steps              F     # default value
timing-split-scf-steps              F     # default value
timing-split-scf-steps              F     # default value
timing-split-scf-steps              F     # default value
compute-forces              T     # default value
#:list? DFTD3.Periodic              F
debug-folding              F     # default value
Save.Overlap.Gradient              F     # default value
Sonly              F     # default value
UseDIISforDMExtrapolation              T     # default value
UseSVDExperimental              F     # default value
UseSVD              T     # default value
Sonly              F     # default value
#:list? Mesh.Sizes              F
#:defined? MeshCutoff              T
#:block? MeshSizes              F
#:defined? MeshSizes              F
#:defined? MeshCutoff              T
XC.Use.BSC.CellXC              F     # default value
PROCS_PER_NODE         4     # default value
PROCS_PER_NODE         4     # default value
Read-H-from-file              F     # default value
timing-split-scf-steps              F     # default value
timing-split-scf-steps              F     # default value
timing-split-scf-steps              F     # default value
timing-split-scf-steps              F     # default value
timing-split-scf-steps              F     # default value
timing-split-scf-steps              F     # default value
timing-split-scf-steps              F     # default value
timing-split-scf-steps              F     # default value
timing-split-scf-steps              F     # default value
timing-split-scf-steps              F     # default value
timing-split-scf-steps              F     # default value
compute-forces              T     # default value
#:list? DFTD3.Periodic              F
debug-folding              F     # default value
Save.Overlap.Gradient              F     # default value
Sonly              F     # default value
UseDIISforDMExtrapolation              T     # default value
UseSVDExperimental              F     # default value
UseSVD              T     # default value
Sonly              F     # default value
#:list? Mesh.Sizes              F
#:defined? MeshCutoff              T
#:block? MeshSizes              F
#:defined? MeshSizes              F
#:defined? MeshCutoff              T
XC.Use.BSC.CellXC              F     # default value
PROCS_PER_NODE         4     # default value
PROCS_PER_NODE         4     # default value
Read-H-from-file              F     # default value
timing-split-scf-steps              F     # default value
timing-split-scf-steps              F     # default value
timing-split-scf-steps              F     # default value
timing-split-scf-steps              F     # default value
timing-split-scf-steps              F     # default value
timing-split-scf-steps              F     # default value
compute-forces              T     # default value
#:list? DFTD3.Periodic              F
debug-folding              F     # default value
Save.Overlap.Gradient              F     # default value
Sonly              F     # default value
UseDIISforDMExtrapolation              T     # default value
UseSVDExperimental              F     # default value
UseSVD              T     # default value
Sonly              F     # default value
#:list? Mesh.Sizes              F
#:defined? MeshCutoff              T
#:block? MeshSizes              F
#:defined? MeshSizes              F
#:defined? MeshCutoff              T
XC.Use.BSC.CellXC              F     # default value
PROCS_PER_NODE         4     # default value
PROCS_PER_NODE         4     # default value
Read-H-from-file              F     # default value
timing-split-scf-steps              F     # default value
timing-split-scf-steps              F     # default value
timing-split-scf-steps              F     # default value
timing-split-scf-steps              F     # default value
compute-forces              T     # default value
#:list? DFTD3.Periodic              F
debug-folding              F     # default value
Save.Overlap.Gradient              F     # default value
Sonly              F     # default value
UseDIISforDMExtrapolation              T     # default value
UseSVDExperimental              F     # default value
UseSVD              T     # default value
Sonly              F     # default value
#:list? Mesh.Sizes              F
#:defined? MeshCutoff              T
#:block? MeshSizes              F
#:defined? MeshSizes              F
#:defined? MeshCutoff              T
XC.Use.BSC.CellXC              F     # default value
PROCS_PER_NODE         4     # default value
PROCS_PER_NODE         4     # default value
Read-H-from-file              F     # default value
timing-split-scf-steps              F     # default value
timing-split-scf-steps              F     # default value
timing-split-scf-steps              F     # default value
timing-split-scf-steps              F     # default value
timing-split-scf-steps              F     # default value
compute-forces              T     # default value
#:list? DFTD3.Periodic              F
debug-folding              F     # default value
Save.Overlap.Gradient              F     # default value
Sonly              F     # default value
UseDIISforDMExtrapolation              T     # default value
UseSVDExperimental              F     # default value
UseSVD              T     # default value
Sonly              F     # default value
#:list? Mesh.Sizes              F
#:defined? MeshCutoff              T
#:block? MeshSizes              F
#:defined? MeshSizes              F
#:defined? MeshCutoff              T
XC.Use.BSC.CellXC              F     # default value
PROCS_PER_NODE         4     # default value
PROCS_PER_NODE         4     # default value
Read-H-from-file              F     # default value
timing-split-scf-steps              F     # default value
timing-split-scf-steps              F     # default value
timing-split-scf-steps              F     # default value
timing-split-scf-steps              F     # default value
timing-split-scf-steps              F     # default value
compute-forces              T     # default value
#:list? DFTD3.Periodic              F
debug-folding              F     # default value
Save.Overlap.Gradient              F     # default value
Sonly              F     # default value
UseDIISforDMExtrapolation              T     # default value
UseSVDExperimental              F     # default value
UseSVD              T     # default value
Sonly              F     # default value
#:list? Mesh.Sizes              F
#:defined? MeshCutoff              T
#:block? MeshSizes              F
#:defined? MeshSizes              F
#:defined? MeshCutoff              T
XC.Use.BSC.CellXC              F     # default value
PROCS_PER_NODE         4     # default value
PROCS_PER_NODE         4     # default value
Read-H-from-file              F     # default value
timing-split-scf-steps              F     # default value
timing-split-scf-steps              F     # default value
timing-split-scf-steps              F     # default value
timing-split-scf-steps              F     # default value
timing-split-scf-steps              F     # default value
compute-forces              T     # default value
#:list? DFTD3.Periodic              F
debug-folding              F     # default value
Save.Overlap.Gradient              F     # default value
Sonly              F     # default value
UseDIISforDMExtrapolation              T     # default value
UseSVDExperimental              F     # default value
UseSVD              T     # default value
Sonly              F     # default value
#:list? Mesh.Sizes              F
#:defined? MeshCutoff              T
#:block? MeshSizes              F
#:defined? MeshSizes              F
#:defined? MeshCutoff              T
XC.Use.BSC.CellXC              F     # default value
PROCS_PER_NODE         4     # default value
PROCS_PER_NODE         4     # default value
Read-H-from-file              F     # default value
timing-split-scf-steps              F     # default value
timing-split-scf-steps              F     # default value
timing-split-scf-steps              F     # default value
timing-split-scf-steps              F     # default value
compute-forces              T     # default value
#:list? DFTD3.Periodic              F
debug-folding              F     # default value
Save.Overlap.Gradient              F     # default value
Sonly              F     # default value
UseDIISforDMExtrapolation              T     # default value
UseSVDExperimental              F     # default value
UseSVD              T     # default value
Sonly              F     # default value
#:list? Mesh.Sizes              F
#:defined? MeshCutoff              T
#:block? MeshSizes              F
#:defined? MeshSizes              F
#:defined? MeshCutoff              T
XC.Use.BSC.CellXC              F     # default value
PROCS_PER_NODE         4     # default value
PROCS_PER_NODE         4     # default value
Read-H-from-file              F     # default value
timing-split-scf-steps              F     # default value
timing-split-scf-steps              F     # default value
timing-split-scf-steps              F     # default value
timing-split-scf-steps              F     # default value
timing-split-scf-steps              F     # default value
compute-forces              T     # default value
#:list? DFTD3.Periodic              F
debug-folding              F     # default value
Save.Overlap.Gradient              F     # default value
Sonly              F     # default value
UseDIISforDMExtrapolation              T     # default value
UseSVDExperimental              F     # default value
UseSVD              T     # default value
Sonly              F     # default value
#:list? Mesh.Sizes              F
#:defined? MeshCutoff              T
#:block? MeshSizes              F
#:defined? MeshSizes              F
#:defined? MeshCutoff              T
XC.Use.BSC.CellXC              F     # default value
PROCS_PER_NODE         4     # default value
PROCS_PER_NODE         4     # default value
Read-H-from-file              F     # default value
timing-split-scf-steps              F     # default value
timing-split-scf-steps              F     # default value
timing-split-scf-steps              F     # default value
timing-split-scf-steps              F     # default value
timing-split-scf-steps              F     # default value
timing-split-scf-steps              F     # default value
timing-split-scf-steps              F     # default value
timing-split-scf-steps              F     # default value
timing-split-scf-steps              F     # default value
compute-forces              T     # default value
#:list? DFTD3.Periodic              F
debug-folding              F     # default value
Save.Overlap.Gradient              F     # default value
Sonly              F     # default value
UseDIISforDMExtrapolation              T     # default value
UseSVDExperimental              F     # default value
UseSVD              T     # default value
Sonly              F     # default value
#:list? Mesh.Sizes              F
#:defined? MeshCutoff              T
#:block? MeshSizes              F
#:defined? MeshSizes              F
#:defined? MeshCutoff              T
XC.Use.BSC.CellXC              F     # default value
PROCS_PER_NODE         4     # default value
PROCS_PER_NODE         4     # default value
Read-H-from-file              F     # default value
timing-split-scf-steps              F     # default value
timing-split-scf-steps              F     # default value
timing-split-scf-steps              F     # default value
timing-split-scf-steps              F     # default value
compute-forces              T     # default value
#:list? DFTD3.Periodic              F
debug-folding              F     # default value
Save.Overlap.Gradient              F     # default value
Sonly              F     # default value
UseDIISforDMExtrapolation              T     # default value
UseSVDExperimental              F     # default value
UseSVD              T     # default value
Sonly              F     # default value
#:list? Mesh.Sizes              F
#:defined? MeshCutoff              T
#:block? MeshSizes              F
#:defined? MeshSizes              F
[...]
Sonly              F     # default value
#:list? Mesh.Sizes              F
#:defined? MeshCutoff              T
#:block? MeshSizes              F
#:defined? MeshSizes              F
#:defined? MeshCutoff              T
XC.Use.BSC.CellXC              F     # default value
PROCS_PER_NODE         4     # default value
PROCS_PER_NODE         4     # default value
Read-H-from-file              F     # default value
timing-split-scf-steps              F     # default value
timing-split-scf-steps              F     # default value
timing-split-scf-steps              F     # default value
timing-split-scf-steps              F     # default value
timing-split-scf-steps              F     # default value
timing-split-scf-steps              F     # default value
timing-split-scf-steps              F     # default value
compute-forces              T     # default value
#:list? DFTD3.Periodic              F
debug-folding              F     # default value
Save.Overlap.Gradient              F     # default value
Sonly              F     # default value
UseDIISforDMExtrapolation              T     # default value
UseSVDExperimental              F     # default value
UseSVD              T     # default value
Sonly              F     # default value
#:list? Mesh.Sizes              F
#:defined? MeshCutoff              T
#:block? MeshSizes              F
#:defined? MeshSizes              F
#:defined? MeshCutoff              T
XC.Use.BSC.CellXC              F     # default value
PROCS_PER_NODE         4     # default value
PROCS_PER_NODE         4     # default value
Read-H-from-file              F     # default value
timing-split-scf-steps              F     # default value
timing-split-scf-steps              F     # default value
timing-split-scf-steps              F     # default value
timing-split-scf-steps              F     # default value
timing-split-scf-steps              F     # default value
timing-split-scf-steps              F     # default value
timing-split-scf-steps              F     # default value
compute-forces              T     # default value
#:list? DFTD3.Periodic              F
debug-folding              F     # default value
Save.Overlap.Gradient              F     # default value
Sonly              F     # default value
UseDIISforDMExtrapolation              T     # default value
UseSVDExperimental              F     # default value
UseSVD              T     # default value
Sonly              F     # default value
#:list? Mesh.Sizes              F
#:defined? MeshCutoff              T
#:block? MeshSizes              F
#:defined? MeshSizes              F
#:defined? MeshCutoff              T
XC.Use.BSC.CellXC              F     # default value
PROCS_PER_NODE         4     # default value
PROCS_PER_NODE         4     # default value
Read-H-from-file              F     # default value
timing-split-scf-steps              F     # default value
timing-split-scf-steps              F     # default value
timing-split-scf-steps              F     # default value
timing-split-scf-steps              F     # default value
timing-split-scf-steps              F     # default value
timing-split-scf-steps              F     # default value
timing-split-scf-steps              F     # default value
timing-split-scf-steps              F     # default value
timing-split-scf-steps              F     # default value
timing-split-scf-steps              F     # default value
compute-forces              T     # default value
#:list? DFTD3.Periodic              F
debug-folding              F     # default value
Save.Overlap.Gradient              F     # default value
Sonly              F     # default value
UseDIISforDMExtrapolation              T     # default value
UseSVDExperimental              F     # default value
UseSVD              T     # default value
Sonly              F     # default value
#:list? Mesh.Sizes              F
#:defined? MeshCutoff              T
#:block? MeshSizes              F
#:defined? MeshSizes              F
#:defined? MeshCutoff              T
XC.Use.BSC.CellXC              F     # default value
PROCS_PER_NODE         4     # default value
PROCS_PER_NODE         4     # default value
Read-H-from-file              F     # default value
timing-split-scf-steps              F     # default value
timing-split-scf-steps              F     # default value
timing-split-scf-steps              F     # default value
timing-split-scf-steps              F     # default value
timing-split-scf-steps              F     # default value
timing-split-scf-steps              F     # default value
compute-forces              T     # default value
#:list? DFTD3.Periodic              F
debug-folding              F     # default value
Save.Overlap.Gradient              F     # default value
Sonly              F     # default value
UseDIISforDMExtrapolation              T     # default value
UseSVDExperimental              F     # default value
UseSVD              T     # default value
Sonly              F     # default value
#:list? Mesh.Sizes              F
#:defined? MeshCutoff              T
#:block? MeshSizes              F
#:defined? MeshSizes              F
#:defined? MeshCutoff              T
XC.Use.BSC.CellXC              F     # default value
PROCS_PER_NODE         4     # default value
PROCS_PER_NODE         4     # default value
Read-H-from-file              F     # default value
timing-split-scf-steps              F     # default value
timing-split-scf-steps              F     # default value
timing-split-scf-steps              F     # default value
timing-split-scf-steps              F     # default value
timing-split-scf-steps              F     # default value
timing-split-scf-steps              F     # default value
compute-forces              T     # default value
#:list? DFTD3.Periodic              F
debug-folding              F     # default value
Save.Overlap.Gradient              F     # default value
Sonly              F     # default value
UseDIISforDMExtrapolation              T     # default value
UseSVDExperimental              F     # default value
UseSVD              T     # default value
Sonly              F     # default value
#:list? Mesh.Sizes              F
#:defined? MeshCutoff              T
#:block? MeshSizes              F
#:defined? MeshSizes              F
#:defined? MeshCutoff              T
XC.Use.BSC.CellXC              F     # default value
PROCS_PER_NODE         4     # default value
PROCS_PER_NODE         4     # default value
Read-H-from-file              F     # default value
timing-split-scf-steps              F     # default value
timing-split-scf-steps              F     # default value
timing-split-scf-steps              F     # default value
timing-split-scf-steps              F     # default value
timing-split-scf-steps              F     # default value
timing-split-scf-steps              F     # default value
compute-forces              T     # default value
#:list? DFTD3.Periodic              F
debug-folding              F     # default value
Save.Overlap.Gradient              F     # default value
Sonly              F     # default value
UseDIISforDMExtrapolation              T     # default value
UseSVDExperimental              F     # default value
UseSVD              T     # default value
Sonly              F     # default value
#:list? Mesh.Sizes              F
#:defined? MeshCutoff              T
#:block? MeshSizes              F
#:defined? MeshSizes              F
#:defined? MeshCutoff              T
XC.Use.BSC.CellXC              F     # default value
PROCS_PER_NODE         4     # default value
PROCS_PER_NODE         4     # default value
Read-H-from-file              F     # default value
timing-split-scf-steps              F     # default value
timing-split-scf-steps              F     # default value
timing-split-scf-steps              F     # default value
timing-split-scf-steps              F     # default value
timing-split-scf-steps              F     # default value
compute-forces              T     # default value
#:list? DFTD3.Periodic              F
debug-folding              F     # default value
Save.Overlap.Gradient              F     # default value
Sonly              F     # default value
UseDIISforDMExtrapolation              T     # default value
UseSVDExperimental              F     # default value
UseSVD              T     # default value
Sonly              F     # default value
#:list? Mesh.Sizes              F
#:defined? MeshCutoff              T
#:block? MeshSizes              F
#:defined? MeshSizes              F
#:defined? MeshCutoff              T
XC.Use.BSC.CellXC              F     # default value
PROCS_PER_NODE         4     # default value
PROCS_PER_NODE         4     # default value
Read-H-from-file              F     # default value
timing-split-scf-steps              F     # default value
timing-split-scf-steps              F     # default value
timing-split-scf-steps              F     # default value
timing-split-scf-steps              F     # default value
compute-forces              T     # default value
#:list? DFTD3.Periodic              F
debug-folding              F     # default value
Save.Overlap.Gradient              F     # default value
Sonly              F     # default value
UseDIISforDMExtrapolation              T     # default value
UseSVDExperimental              F     # default value
UseSVD              T     # default value
Sonly              F     # default value
#:list? Mesh.Sizes              F
#:defined? MeshCutoff              T
#:block? MeshSizes              F
#:defined? MeshSizes              F
#:defined? MeshCutoff              T
XC.Use.BSC.CellXC              F     # default value
PROCS_PER_NODE         4     # default value
PROCS_PER_NODE         4     # default value
Read-H-from-file              F     # default value
timing-split-scf-steps              F     # default value
timing-split-scf-steps              F     # default value
timing-split-scf-steps              F     # default value
timing-split-scf-steps              F     # default value
timing-split-scf-steps              F     # default value
compute-forces              T     # default value
#:list? DFTD3.Periodic              F
debug-folding              F     # default value
Save.Overlap.Gradient              F     # default value
Sonly              F     # default value
UseDIISforDMExtrapolation              T     # default value
UseSVDExperimental              F     # default value
UseSVD              T     # default value
Sonly              F     # default value
#:list? Mesh.Sizes              F
#:defined? MeshCutoff              T
#:block? MeshSizes              F
#:defined? MeshSizes              F
#:defined? MeshCutoff              T
XC.Use.BSC.CellXC              F     # default value
PROCS_PER_NODE         4     # default value
PROCS_PER_NODE         4     # default value
Read-H-from-file              F     # default value
timing-split-scf-steps              F     # default value
timing-split-scf-steps              F     # default value
timing-split-scf-steps              F     # default value
timing-split-scf-steps              F     # default value
timing-split-scf-steps              F     # default value
compute-forces              T     # default value
#:list? DFTD3.Periodic              F
debug-folding              F     # default value
Save.Overlap.Gradient              F     # default value
Sonly              F     # default value
UseDIISforDMExtrapolation              T     # default value
UseSVDExperimental              F     # default value
UseSVD              T     # default value
Sonly              F     # default value
#:list? Mesh.Sizes              F
#:defined? MeshCutoff              T
#:block? MeshSizes              F
#:defined? MeshSizes              F
#:defined? MeshCutoff              T
XC.Use.BSC.CellXC              F     # default value
PROCS_PER_NODE         4     # default value
PROCS_PER_NODE         4     # default value
Read-H-from-file              F     # default value
timing-split-scf-steps              F     # default value
timing-split-scf-steps              F     # default value
timing-split-scf-steps              F     # default value
timing-split-scf-steps              F     # default value
compute-forces              T     # default value
#:list? DFTD3.Periodic              F
debug-folding              F     # default value
Save.Overlap.Gradient              F     # default value
Sonly              F     # default value
UseDIISforDMExtrapolation              T     # default value
UseSVDExperimental              F     # default value
UseSVD              T     # default value
Sonly              F     # default value
#:list? Mesh.Sizes              F
#:defined? MeshCutoff              T
#:block? MeshSizes              F
#:defined? MeshSizes              F
#:defined? MeshCutoff              T
XC.Use.BSC.CellXC              F     # default value
PROCS_PER_NODE         4     # default value
PROCS_PER_NODE         4     # default value
Read-H-from-file              F     # default value
timing-split-scf-steps              F     # default value
timing-split-scf-steps              F     # default value
timing-split-scf-steps              F     # default value
timing-split-scf-steps              F     # default value
timing-split-scf-steps              F     # default value
compute-forces              T     # default value
#:list? DFTD3.Periodic              F
debug-folding              F     # default value
Save.Overlap.Gradient              F     # default value
Sonly              F     # default value
UseDIISforDMExtrapolation              T     # default value
UseSVDExperimental              F     # default value
UseSVD              T     # default value
Sonly              F     # default value
#:list? Mesh.Sizes              F
#:defined? MeshCutoff              T
#:block? MeshSizes              F
#:defined? MeshSizes              F
#:defined? MeshCutoff              T
XC.Use.BSC.CellXC              F     # default value
PROCS_PER_NODE         4     # default value
PROCS_PER_NODE         4     # default value
Read-H-from-file              F     # default value
timing-split-scf-steps              F     # default value
timing-split-scf-steps              F     # default value
timing-split-scf-steps              F     # default value
timing-split-scf-steps              F     # default value
compute-forces              T     # default value
#:list? DFTD3.Periodic              F
debug-folding              F     # default value
Save.Overlap.Gradient              F     # default value
Sonly              F     # default value
UseDIISforDMExtrapolation              T     # default value
UseSVDExperimental              F     # default value
UseSVD              T     # default value
Sonly              F     # default value
#:list? Mesh.Sizes              F
#:defined? MeshCutoff              T
#:block? MeshSizes              F
#:defined? MeshSizes              F
#:defined? MeshCutoff              T
XC.Use.BSC.CellXC              F     # default value
PROCS_PER_NODE         4     # default value
PROCS_PER_NODE         4     # default value
Read-H-from-file              F     # default value
timing-split-scf-steps              F     # default value
timing-split-scf-steps              F     # default value
timing-split-scf-steps              F     # default value
timing-split-scf-steps              F     # default value
compute-forces              T     # default value
#:list? DFTD3.Periodic              F
debug-folding              F     # default value
Save.Overlap.Gradient              F     # default value
Sonly              F     # default value
UseDIISforDMExtrapolation              T     # default value
UseSVDExperimental              F     # default value
UseSVD              T     # default value
Sonly              F     # default value
#:list? Mesh.Sizes              F
#:defined? MeshCutoff              T
#:block? MeshSizes              F
#:defined? MeshSizes              F
#:defined? MeshCutoff              T
XC.Use.BSC.CellXC              F     # default value
PROCS_PER_NODE         4     # default value
PROCS_PER_NODE         4     # default value
Read-H-from-file              F     # default value
timing-split-scf-steps              F     # default value
timing-split-scf-steps              F     # default value
timing-split-scf-steps              F     # default value
timing-split-scf-steps              F     # default value
compute-forces              T     # default value
#:list? DFTD3.Periodic              F
debug-folding              F     # default value
Save.Overlap.Gradient              F     # default value
Sonly              F     # default value
UseDIISforDMExtrapolation              T     # default value
UseSVDExperimental              F     # default value
UseSVD              T     # default value
Sonly              F     # default value
#:list? Mesh.Sizes              F
#:defined? MeshCutoff              T
#:block? MeshSizes              F
#:defined? MeshSizes              F
#:defined? MeshCutoff              T
XC.Use.BSC.CellXC              F     # default value
PROCS_PER_NODE         4     # default value
PROCS_PER_NODE         4     # default value
Read-H-from-file              F     # default value
timing-split-scf-steps              F     # default value
timing-split-scf-steps              F     # default value
timing-split-scf-steps              F     # default value
timing-split-scf-steps              F     # default value
timing-split-scf-steps              F     # default value
compute-forces              T     # default value
#:list? DFTD3.Periodic              F
debug-folding              F     # default value
Save.Overlap.Gradient              F     # default value
Sonly              F     # default value
UseDIISforDMExtrapolation              T     # default value
UseSVDExperimental              F     # default value
UseSVD              T     # default value
Sonly              F     # default value
#:list? Mesh.Sizes              F
#:defined? MeshCutoff              T
#:block? MeshSizes              F
#:defined? MeshSizes              F
#:defined? MeshCutoff              T
XC.Use.BSC.CellXC              F     # default value
PROCS_PER_NODE         4     # default value
PROCS_PER_NODE         4     # default value
Read-H-from-file              F     # default value
timing-split-scf-steps              F     # default value
timing-split-scf-steps              F     # default value
timing-split-scf-steps              F     # default value
timing-split-scf-steps              F     # default value
compute-forces              T     # default value
#:list? DFTD3.Periodic              F
debug-folding              F     # default value
Save.Overlap.Gradient              F     # default value
Sonly              F     # default value
UseDIISforDMExtrapolation              T     # default value
UseSVDExperimental              F     # default value
UseSVD              T     # default value
Sonly              F     # default value
#:list? Mesh.Sizes              F
#:defined? MeshCutoff              T
#:block? MeshSizes              F
#:defined? MeshSizes              F
#:defined? MeshCutoff              T
XC.Use.BSC.CellXC              F     # default value
PROCS_PER_NODE         4     # default value
PROCS_PER_NODE         4     # default value
Read-H-from-file              F     # default value
timing-split-scf-steps              F     # default value
timing-split-scf-steps              F     # default value
timing-split-scf-steps              F     # default value
timing-split-scf-steps              F     # default value
compute-forces              T     # default value
#:list? DFTD3.Periodic              F
Read-H-from-file              F     # default value
WriteCoorXmol              F     # default value
WriteCoorCerius              F     # default value
BasisPressure         0.2000000000     GPa     # default value
OpticalCalculation              F     # default value
