Siesta Version  : 5.0.0-alpha-112-g6e4f53aee-dirty
Architecture    : ----
Compiler version: Intel-2021.8.0.20221119
Compiler flags  : -O2 -ip -xHost -fp-model=strict -prec-div -prec-sqrt
PP flags        : ----
Libraries       : ----
Parallelisations: MPI
GEMM3M support
NetCDF support
NetCDF-4 support

Runtime information:
* Directory : /n/holylabs/LABS/kaxiras_lab/axzhu/projects/AM207-final-project/N_8/PSO-2params
* Running on 64 nodes in parallel.
>> Start of run:  30-NOV-2024  21:31:29

                           *********************** 
                           *  WELCOME TO SIESTA  * 
                           *********************** 

reinit: Reading from standard input
reinit: Dumping input in INPUT_TMP.93648
************************** Dump of input data file ****************************
#################################
#				#
#	Basic Information	#
#	      			#
#################################
SystemName      Graphene
SystemLabel     Graphene
#########################################
#					#
#	Structural Information		#
#					#
#########################################
%include structure.fdf
#################################
#                               #
#       DFT Parameters          #
#                               #
#################################
SolutionMethod diagon           # Method of solving system. Can change to OrderN, transiesta, etc.
#Diag.Algorithm MRRR
#NumberOfEigenStates -20 # this will include first 10 conduction bands
XC.Functional   GGA
XC.Authors      PBE
DFTD3 true
Spin non-polarized
# This is causing memory issues, keep it low for now.
Mesh.Cutoff 300 Ry              # Cut off plane waves with kinetic energy higher than this.
MaxSCFIterations 300            # Max number of iterations in the SCF loop.
DM.UseSaveDM true
MinSCFIterations       3
SCF.DM.Tolerance       0.0001
SCF.Mixer.Weight       0.10
SCF.Mixer.History      12
SCF.Mix.First          true
#################################
#                               #
#             Basis             #
#                               #
#################################
#PAO.BasisSize   DZP
PAO.Basis < basis.fdf
#########################################
#					#
#	k-points, Bands, DOS		#
#		  	 		#
#########################################
%block kgrid_Monkhorst_Pack
   1  0  0  0.0
   0  1  0  0.0
   0  0  1  0.0
%endblock kgrid_Monkhorst_Pack
#BandLinesScale ReciprocalLatticeVectors
#%block BandLines
#1   0.6666666667  0.3333333333  0.0000000000  K
#10  0.0000000000  0.0000000000  0.0000000000  Gamma
#10  0.5000000000  0.0000000000  0.0000000000  M
#10  0.6666666667  0.3333333333  0.0000000000  K
#%endblock BandLines
# Local density of states (LDOS)
# %block LocalDensityOfStates
# EF 8.40 8.50 eV
# %endblock LocalDensityOfStates
#########################################
#                                       #
#             Wavefunctions             #
#                                       #
#########################################
#WaveFuncKPointsScale ReciprocalLatticeVectors
#%block WaveFuncKPoints
#0.666 0.333 0.000 from 4375 to 4378 # K wavefuncs 4375 to 4378
#0.000 0.000 0.000 from 4375 to 4378 # Gamma wavefuncs 4375 to 4378
#0.500 0.000 0.000 from 4375 to 4378 # M wavefuncs 4375 to 4378
#%endblock WaveFuncKPoints
#WriteDenchar T
#########################################
#                                       #
#       Geometry Optimisation           #
#                                       #
#########################################
MD.UseSaveXV true
MD.TypeOfRun           CG                  # Conjugate Gradient
MD.NumCGsteps          200                 # Max number of steps
MD.MaxForceTol         0.01    eV/Ang      # 10 meV/Ang
MD.VariableCell        false               # Don't relax cell
MD.MaxCGDispl          0.5 Bohr            # Maximum displacement of any atom
# Fix COM in Z direction only
%block Geometry.Constraints
 center all 0.0 0.0 1.0
%endblock Geometry.Constraints
************************** End of input data file *****************************

reinit: -----------------------------------------------------------------------
reinit: System Name: Graphene
reinit: -----------------------------------------------------------------------
reinit: System Label: Graphene
reinit: -----------------------------------------------------------------------

initatom: Reading input for the pseudopotentials and atomic orbitals ----------
Species number:   1 Atomic number:    6 Label: C
 

---- Processing specs for species: C
Ground state valence configuration:   2s02  2p02
Reading pseudopotential information in PSML from:
  C.psml
PSML file version: 1.1
Using libxc ids:  101 130
GGA--PBE XC_GGA_X_PBE--XC_GGA_C_PBE pb
 Using ATOM defaults for log grid...
PSML uuid: 297821e0-be41-11e7-6802-e1ff7dfff095

---- Pseudopotential check for C 

Pseudized shells:
2s( 2.00) rc: 1.20
2p( 2.00) rc: 1.26
Valence configuration for ps generation: 2s:2p: Total charge:   4.000000
For C, standard SIESTA heuristics set lmxkb to 3
 (one more than the basis l, including polarization orbitals).
Use PS.lmax or PS.KBprojectors blocks to override.
C pseudopotential only contains V_ls up to l=1 -- lmxkb reset.

<basis_specs>
===============================================================================
C                    Z=   6    Mass=  12.011        Charge= 0.99941    
Lmxo=2 Lmxkb= 1    BasisType=split      Semic=F
L=0  Nsemic=0  Cnfigmx=2
          i=1  nzeta=1  polorb=0  (2s)
            splnorm:   0.15000    
               vcte:    132.57    
               rinn:    4.5256    
               qcoe:    0.0000    
               qyuk:    0.0000    
               qwid:   0.10000E-01
                rcs:    6.0009    
            lambdas:    1.0000    
L=1  Nsemic=0  Cnfigmx=2
          i=1  nzeta=1  polorb=0  (2p)
            splnorm:   0.15000    
               vcte:    6.0639    
               rinn:    6.0646    
               qcoe:    0.0000    
               qyuk:    0.0000    
               qwid:   0.10000E-01
                rcs:    6.7108    
            lambdas:    1.0000    
L=2  Nsemic=0  Cnfigmx=3
          i=1  nzeta=1  polorb=0  (3d)
            splnorm:   0.15000    
               vcte:    14.478    
               rinn:    4.3208    
               qcoe:    0.0000    
               qyuk:    0.0000    
               qwid:   0.10000E-01
                rcs:    6.2254    
            lambdas:    1.0000    
-------------------------------------------------------------------------------
L=0  Nkbl=1  erefs: 0.17977+309
L=1  Nkbl=1  erefs: 0.17977+309
===============================================================================
</basis_specs>

atom: Called for C                     (Z =   6)
NOTE: C pseudopotential has channels up to l= 1
NOTE: PAOs with higher l will be generated with V_local

read_vps: Pseudopotential generation method:
read_vps: ONCVPSP-3.Hamann's oncvpsp                        
Valence charge in pseudo generation:    4.00000

read_vps: Pseudopotential includes a core correction:
read_vps: Pseudo-core for xc-correction

xc_check: Exchange-correlation functional:
xc_check: GGA Perdew, Burke & Ernzerhof 1996
Got Vlocal (oncv-fit) from psml data
Choosing vlocal chloc cutoff:  4.139772
qtot up to nchloc:    3.99998844
atom: Maximum radius for chlocal:    4.13977
atom: Maximum radius for r*vlocal+2*Zval:    4.13977
Reading KB projs from C psml data
Using scalar-relativistic projectors in PSML file

PSML: Kleinman-Bylander projectors: 
   l= 0   rc=  1.231096   Ekb= 12.963096
   l= 0   rc=  1.231096   Ekb=  0.771007
   l= 1   rc=  1.294237   Ekb= -8.399923
   l= 1   rc=  1.294237   Ekb= -1.755033

PSML: Total number of  Kleinman-Bylander projectors:   8
atom: -------------------------------------------------------------------------

atom: SANKEY-TYPE ORBITALS:

atom: basis set generated (by rescaling the valence charge)
atom: for a cation of charge   0.9994

SPLIT: Orbitals with angular momentum L= 0

SPLIT: Basis orbitals for state 2s

   izeta = 1
                 lambda =    1.000000
                     rc =    6.099293
                 energy =   -2.079355
                kinetic =    1.090115
    potential(screened) =   -3.169470
       potential(ionic) =   -5.727963

SPLIT: Orbitals with angular momentum L= 1

SPLIT: Basis orbitals for state 2p

   izeta = 1
                 lambda =    1.000000
                     rc =    6.740804
                 energy =   -1.441657
                kinetic =    3.222058
    potential(screened) =   -4.663715
       potential(ionic) =   -7.206130
*Note: V_local used for l= 2

** Using vlocal for PAOs with L= 2

SPLIT: Orbitals with angular momentum L= 2

SPLIT: Basis orbitals for state 3d

   izeta = 1
                 lambda =    1.000000
                     rc =    6.253707
                 energy =    0.017329
                kinetic =    1.197074
    potential(screened) =   -1.179745
       potential(ionic) =   -2.838380
atom: Total number of Sankey-type orbitals:  9

atm_pop: Valence configuration (for local Pseudopot. screening):
 2s( 2.00)                                                            
 2p( 2.00)                                                            
 3d( 0.00)                                                            
Vna: chval, zval:    4.00000   4.00000

Vna:  Cut-off radius for the neutral-atom potential:   6.740804
comcore: Pseudo-core radius Rcore=  1.682861

atom: _________________________________________________________________________

prinput: Basis input 

PAO.BasisType split     

%block ChemicalSpeciesLabel
    1    6 C                       # Species index, atomic number, species label
%endblock ChemicalSpeciesLabel

%block PAO.Basis                 # Define Basis set
# WARNING: This information might be incomplete!
C                     3   0.999            # Label, l-shells, ionic net charge
 n=2   0   1                         # n, l, Nzeta 
   6.099   
   1.000   
 n=2   1   1                         # n, l, Nzeta 
   6.741   
   1.000   
 n=3   2   1                         # n, l, Nzeta 
   6.254   
   1.000   
%endblock PAO.Basis

prinput: ----------------------------------------------------------------------

Dumping basis to NetCDF file C.ion.nc
coor:   Atomic-coordinates input format  =     Cartesian coordinates
coor:                                          (in Angstroms)

siesta: WARNING: XV file not found

siesta: Atomic coordinates (Bohr) and species
siesta:      2.68394   0.00000  34.56079  1        1
siesta:     10.73577   0.00000  34.56079  1        2
siesta:     18.78760   0.00000  34.56079  1        3
siesta:     26.83943   0.00000  34.56079  1        4
siesta:     34.89126   0.00000  34.56079  1        5
siesta:     42.94309   0.00000  34.56079  1        6
siesta:     50.99492   0.00000  34.56079  1        7
siesta:     59.04675   0.00000  34.56079  1        8
siesta:      6.70986   2.32436  34.56079  1        9
siesta:     14.76169   2.32436  34.56079  1       10
siesta:     22.81352   2.32436  34.56079  1       11
siesta:     30.86535   2.32436  34.56079  1       12
siesta:     38.91718   2.32436  34.56079  1       13
siesta:     46.96901   2.32436  34.56079  1       14
siesta:     55.02084   2.32436  34.56079  1       15
siesta:     63.07267   2.32436  34.56079  1       16
siesta:     10.73577   4.64873  34.56079  1       17
siesta:     18.78760   4.64873  34.56079  1       18
siesta:     26.83943   4.64873  34.56079  1       19
siesta:     34.89126   4.64873  34.56079  1       20
siesta:     42.94309   4.64873  34.56079  1       21
siesta:     50.99492   4.64873  34.56079  1       22
siesta:     59.04675   4.64873  34.56079  1       23
siesta:      6.70986   6.97309  34.56079  1       24
siesta:     14.76169   6.97309  34.56079  1       25
siesta:     22.81352   6.97309  34.56079  1       26
siesta:     30.86535   6.97309  34.56079  1       27
siesta:     38.91718   6.97309  34.56079  1       28
siesta:     46.96901   6.97309  34.56079  1       29
siesta:     55.02084   6.97309  34.56079  1       30
siesta:     63.07267   6.97309  34.56079  1       31
siesta:     10.73577   9.29745  34.56079  1       32
siesta:     18.78760   9.29745  34.56079  1       33
siesta:     26.83943   9.29745  34.56079  1       34
siesta:     34.89126   9.29745  34.56079  1       35
siesta:     42.94309   9.29745  34.56079  1       36
siesta:     50.99492   9.29745  34.56079  1       37
siesta:     59.04675   9.29745  34.56079  1       38
siesta:     67.09858   9.29745  34.56079  1       39
siesta:     14.76169  11.62182  34.56079  1       40
siesta:     22.81352  11.62182  34.56079  1       41
siesta:     30.86535  11.62182  34.56079  1       42
siesta:     38.91718  11.62182  34.56079  1       43
siesta:     46.96901  11.62182  34.56079  1       44
siesta:     55.02084  11.62182  34.56079  1       45
siesta:     63.07267  11.62182  34.56079  1       46
siesta:     10.73577  13.94618  34.56079  1       47
siesta:     18.78760  13.94618  34.56079  1       48
siesta:     26.83943  13.94618  34.56079  1       49
siesta:     34.89126  13.94618  34.56079  1       50
siesta:     42.94309  13.94618  34.56079  1       51
siesta:     50.99492  13.94618  34.56079  1       52
siesta:     59.04675  13.94618  34.56079  1       53
siesta:     67.09858  13.94618  34.56079  1       54
siesta:     14.76169  16.27054  34.56079  1       55
siesta:     22.81352  16.27054  34.56079  1       56
siesta:     30.86535  16.27054  34.56079  1       57
siesta:     38.91718  16.27054  34.56079  1       58
siesta:     46.96901  16.27054  34.56079  1       59
siesta:     55.02084  16.27054  34.56079  1       60
siesta:     63.07267  16.27054  34.56079  1       61
siesta:     71.12450  16.27054  34.56079  1       62
siesta:     18.78760  18.59491  34.56079  1       63
siesta:     26.83943  18.59491  34.56079  1       64
siesta:     34.89126  18.59491  34.56079  1       65
siesta:     42.94309  18.59491  34.56079  1       66
siesta:     50.99492  18.59491  34.56079  1       67
siesta:     59.04675  18.59491  34.56079  1       68
siesta:     67.09858  18.59491  34.56079  1       69
siesta:     14.76169  20.91927  34.56079  1       70
siesta:     22.81352  20.91927  34.56079  1       71
siesta:     30.86535  20.91927  34.56079  1       72
siesta:     38.91718  20.91927  34.56079  1       73
siesta:     46.96901  20.91927  34.56079  1       74
siesta:     55.02084  20.91927  34.56079  1       75
siesta:     63.07267  20.91927  34.56079  1       76
siesta:     71.12450  20.91927  34.56079  1       77
siesta:     18.78760  23.24363  34.56079  1       78
siesta:     26.83943  23.24363  34.56079  1       79
siesta:     34.89126  23.24363  34.56079  1       80
siesta:     42.94309  23.24363  34.56079  1       81
siesta:     50.99492  23.24363  34.56079  1       82
siesta:     59.04675  23.24363  34.56079  1       83
siesta:     67.09858  23.24363  34.56079  1       84
siesta:     75.15041  23.24363  34.56079  1       85
siesta:     22.81352  25.56799  34.56079  1       86
siesta:     30.86535  25.56799  34.56079  1       87
siesta:     38.91718  25.56799  34.56079  1       88
siesta:     46.96901  25.56799  34.56079  1       89
siesta:     55.02084  25.56799  34.56079  1       90
siesta:     63.07267  25.56799  34.56079  1       91
siesta:     71.12450  25.56799  34.56079  1       92
siesta:     18.78760  27.89236  34.56079  1       93
siesta:     26.83943  27.89236  34.56079  1       94
siesta:     34.89126  27.89236  34.56079  1       95
siesta:     42.94309  27.89236  34.56079  1       96
siesta:     50.99492  27.89236  34.56079  1       97
siesta:     59.04675  27.89236  34.56079  1       98
siesta:     67.09858  27.89236  34.56079  1       99
siesta:     75.15041  27.89236  34.56079  1      100
siesta:     22.81352  30.21672  34.56079  1      101
siesta:     30.86535  30.21672  34.56079  1      102
siesta:     38.91718  30.21672  34.56079  1      103
siesta:     46.96901  30.21672  34.56079  1      104
siesta:     55.02084  30.21672  34.56079  1      105
siesta:     63.07267  30.21672  34.56079  1      106
siesta:     71.12450  30.21672  34.56079  1      107
siesta:     79.17633  30.21672  34.56079  1      108
siesta:     26.83943  32.54108  34.56079  1      109
siesta:     34.89126  32.54108  34.56079  1      110
siesta:     42.94309  32.54108  34.56079  1      111
siesta:     50.99492  32.54108  34.56079  1      112
siesta:     59.04675  32.54108  34.56079  1      113
siesta:     67.09858  32.54108  34.56079  1      114
siesta:     75.15041  32.54108  34.56079  1      115
siesta:     22.81352  34.86545  34.56079  1      116
siesta:     30.86535  34.86545  34.56079  1      117
siesta:     38.91718  34.86545  34.56079  1      118
siesta:     46.96901  34.86545  34.56079  1      119
siesta:     55.02084  34.86545  34.56079  1      120
siesta:     63.07267  34.86545  34.56079  1      121
siesta:     71.12450  34.86545  34.56079  1      122
siesta:     79.17633  34.86545  34.56079  1      123
siesta:     26.83943  37.18981  34.56079  1      124
siesta:     34.89126  37.18981  34.56079  1      125
siesta:     42.94309  37.18981  34.56079  1      126
siesta:     50.99492  37.18981  34.56079  1      127
siesta:     59.04675  37.18981  34.56079  1      128
siesta:     67.09858  37.18981  34.56079  1      129
siesta:     75.15041  37.18981  34.56079  1      130
siesta:     83.20224  37.18981  34.56079  1      131
siesta:     30.86535  39.51417  34.56079  1      132
siesta:     38.91718  39.51417  34.56079  1      133
siesta:     46.96901  39.51417  34.56079  1      134
siesta:     55.02084  39.51417  34.56079  1      135
siesta:     63.07267  39.51417  34.56079  1      136
siesta:     71.12450  39.51417  34.56079  1      137
siesta:     79.17633  39.51417  34.56079  1      138
siesta:     26.83943  41.83854  34.56079  1      139
siesta:     34.89126  41.83854  34.56079  1      140
siesta:     42.94309  41.83854  34.56079  1      141
siesta:     50.99492  41.83854  34.56079  1      142
siesta:     59.04675  41.83854  34.56079  1      143
siesta:     67.09858  41.83854  34.56079  1      144
siesta:     75.15041  41.83854  34.56079  1      145
siesta:     83.20224  41.83854  34.56079  1      146
siesta:     30.86535  44.16290  34.56079  1      147
siesta:     38.91718  44.16290  34.56079  1      148
siesta:     46.96901  44.16290  34.56079  1      149
siesta:     55.02084  44.16290  34.56079  1      150
siesta:     63.07267  44.16290  34.56079  1      151
siesta:     71.12450  44.16290  34.56079  1      152
siesta:     79.17633  44.16290  34.56079  1      153
siesta:     87.22816  44.16290  34.56079  1      154
siesta:     34.89126  46.48726  34.56079  1      155
siesta:     42.94309  46.48726  34.56079  1      156
siesta:     50.99492  46.48726  34.56079  1      157
siesta:     59.04675  46.48726  34.56079  1      158
siesta:     67.09858  46.48726  34.56079  1      159
siesta:     75.15041  46.48726  34.56079  1      160
siesta:     83.20224  46.48726  34.56079  1      161
siesta:     30.86535  48.81163  34.56079  1      162
siesta:     38.91718  48.81163  34.56079  1      163
siesta:     46.96901  48.81163  34.56079  1      164
siesta:     55.02084  48.81163  34.56079  1      165
siesta:     63.07267  48.81163  34.56079  1      166
siesta:     71.12450  48.81163  34.56079  1      167
siesta:     79.17633  48.81163  34.56079  1      168
siesta:     87.22816  48.81163  34.56079  1      169
siesta:      5.36789   0.00000  34.56079  1      170
siesta:     13.41972   0.00000  34.56079  1      171
siesta:     21.47155   0.00000  34.56079  1      172
siesta:     29.52338   0.00000  34.56079  1      173
siesta:     37.57521   0.00000  34.56079  1      174
siesta:     45.62704   0.00000  34.56079  1      175
siesta:     53.67887   0.00000  34.56079  1      176
siesta:     61.73070   0.00000  34.56079  1      177
siesta:      9.39380   2.32436  34.56079  1      178
siesta:     17.44563   2.32436  34.56079  1      179
siesta:     25.49746   2.32436  34.56079  1      180
siesta:     33.54929   2.32436  34.56079  1      181
siesta:     41.60112   2.32436  34.56079  1      182
siesta:     49.65295   2.32436  34.56079  1      183
siesta:     57.70478   2.32436  34.56079  1      184
siesta:      5.36789   4.64873  34.56079  1      185
siesta:     13.41972   4.64873  34.56079  1      186
siesta:     21.47155   4.64873  34.56079  1      187
siesta:     29.52338   4.64873  34.56079  1      188
siesta:     37.57521   4.64873  34.56079  1      189
siesta:     45.62704   4.64873  34.56079  1      190
siesta:     53.67887   4.64873  34.56079  1      191
siesta:     61.73070   4.64873  34.56079  1      192
siesta:      9.39380   6.97309  34.56079  1      193
siesta:     17.44563   6.97309  34.56079  1      194
siesta:     25.49746   6.97309  34.56079  1      195
siesta:     33.54929   6.97309  34.56079  1      196
siesta:     41.60112   6.97309  34.56079  1      197
siesta:     49.65295   6.97309  34.56079  1      198
siesta:     57.70478   6.97309  34.56079  1      199
siesta:     65.75661   6.97309  34.56079  1      200
siesta:     13.41972   9.29745  34.56079  1      201
siesta:     21.47155   9.29745  34.56079  1      202
siesta:     29.52338   9.29745  34.56079  1      203
siesta:     37.57521   9.29745  34.56079  1      204
siesta:     45.62704   9.29745  34.56079  1      205
siesta:     53.67887   9.29745  34.56079  1      206
siesta:     61.73070   9.29745  34.56079  1      207
siesta:      9.39380  11.62182  34.56079  1      208
siesta:     17.44563  11.62182  34.56079  1      209
siesta:     25.49746  11.62182  34.56079  1      210
siesta:     33.54929  11.62182  34.56079  1      211
siesta:     41.60112  11.62182  34.56079  1      212
siesta:     49.65295  11.62182  34.56079  1      213
siesta:     57.70478  11.62182  34.56079  1      214
siesta:     65.75661  11.62182  34.56079  1      215
siesta:     13.41972  13.94618  34.56079  1      216
siesta:     21.47155  13.94618  34.56079  1      217
siesta:     29.52338  13.94618  34.56079  1      218
siesta:     37.57521  13.94618  34.56079  1      219
siesta:     45.62704  13.94618  34.56079  1      220
siesta:     53.67887  13.94618  34.56079  1      221
siesta:     61.73070  13.94618  34.56079  1      222
siesta:     69.78253  13.94618  34.56079  1      223
siesta:     17.44563  16.27054  34.56079  1      224
siesta:     25.49746  16.27054  34.56079  1      225
siesta:     33.54929  16.27054  34.56079  1      226
siesta:     41.60112  16.27054  34.56079  1      227
siesta:     49.65295  16.27054  34.56079  1      228
siesta:     57.70478  16.27054  34.56079  1      229
siesta:     65.75661  16.27054  34.56079  1      230
siesta:     13.41972  18.59491  34.56079  1      231
siesta:     21.47155  18.59491  34.56079  1      232
siesta:     29.52338  18.59491  34.56079  1      233
siesta:     37.57521  18.59491  34.56079  1      234
siesta:     45.62704  18.59491  34.56079  1      235
siesta:     53.67887  18.59491  34.56079  1      236
siesta:     61.73070  18.59491  34.56079  1      237
siesta:     69.78253  18.59491  34.56079  1      238
siesta:     17.44563  20.91927  34.56079  1      239
siesta:     25.49746  20.91927  34.56079  1      240
siesta:     33.54929  20.91927  34.56079  1      241
siesta:     41.60112  20.91927  34.56079  1      242
siesta:     49.65295  20.91927  34.56079  1      243
siesta:     57.70478  20.91927  34.56079  1      244
siesta:     65.75661  20.91927  34.56079  1      245
siesta:     73.80844  20.91927  34.56079  1      246
siesta:     21.47155  23.24363  34.56079  1      247
siesta:     29.52338  23.24363  34.56079  1      248
siesta:     37.57521  23.24363  34.56079  1      249
siesta:     45.62704  23.24363  34.56079  1      250
siesta:     53.67887  23.24363  34.56079  1      251
siesta:     61.73070  23.24363  34.56079  1      252
siesta:     69.78253  23.24363  34.56079  1      253
siesta:     17.44563  25.56799  34.56079  1      254
siesta:     25.49746  25.56799  34.56079  1      255
siesta:     33.54929  25.56799  34.56079  1      256
siesta:     41.60112  25.56799  34.56079  1      257
siesta:     49.65295  25.56799  34.56079  1      258
siesta:     57.70478  25.56799  34.56079  1      259
siesta:     65.75661  25.56799  34.56079  1      260
siesta:     73.80844  25.56799  34.56079  1      261
siesta:     21.47155  27.89236  34.56079  1      262
siesta:     29.52338  27.89236  34.56079  1      263
siesta:     37.57521  27.89236  34.56079  1      264
siesta:     45.62704  27.89236  34.56079  1      265
siesta:     53.67887  27.89236  34.56079  1      266
siesta:     61.73070  27.89236  34.56079  1      267
siesta:     69.78253  27.89236  34.56079  1      268
siesta:     77.83436  27.89236  34.56079  1      269
siesta:     25.49746  30.21672  34.56079  1      270
siesta:     33.54929  30.21672  34.56079  1      271
siesta:     41.60112  30.21672  34.56079  1      272
siesta:     49.65295  30.21672  34.56079  1      273
siesta:     57.70478  30.21672  34.56079  1      274
siesta:     65.75661  30.21672  34.56079  1      275
siesta:     73.80844  30.21672  34.56079  1      276
siesta:     21.47155  32.54108  34.56079  1      277
siesta:     29.52338  32.54108  34.56079  1      278
siesta:     37.57521  32.54108  34.56079  1      279
siesta:     45.62704  32.54108  34.56079  1      280
siesta:     53.67887  32.54108  34.56079  1      281
siesta:     61.73070  32.54108  34.56079  1      282
siesta:     69.78253  32.54108  34.56079  1      283
siesta:     77.83436  32.54108  34.56079  1      284
siesta:     25.49746  34.86545  34.56079  1      285
siesta:     33.54929  34.86545  34.56079  1      286
siesta:     41.60112  34.86545  34.56079  1      287
siesta:     49.65295  34.86545  34.56079  1      288
siesta:     57.70478  34.86545  34.56079  1      289
siesta:     65.75661  34.86545  34.56079  1      290
siesta:     73.80844  34.86545  34.56079  1      291
siesta:     81.86027  34.86545  34.56079  1      292
siesta:     29.52338  37.18981  34.56079  1      293
siesta:     37.57521  37.18981  34.56079  1      294
siesta:     45.62704  37.18981  34.56079  1      295
siesta:     53.67887  37.18981  34.56079  1      296
siesta:     61.73070  37.18981  34.56079  1      297
siesta:     69.78253  37.18981  34.56079  1      298
siesta:     77.83436  37.18981  34.56079  1      299
siesta:     25.49746  39.51417  34.56079  1      300
siesta:     33.54929  39.51417  34.56079  1      301
siesta:     41.60112  39.51417  34.56079  1      302
siesta:     49.65295  39.51417  34.56079  1      303
siesta:     57.70478  39.51417  34.56079  1      304
siesta:     65.75661  39.51417  34.56079  1      305
siesta:     73.80844  39.51417  34.56079  1      306
siesta:     81.86027  39.51417  34.56079  1      307
siesta:     29.52338  41.83854  34.56079  1      308
siesta:     37.57521  41.83854  34.56079  1      309
siesta:     45.62704  41.83854  34.56079  1      310
siesta:     53.67887  41.83854  34.56079  1      311
siesta:     61.73070  41.83854  34.56079  1      312
siesta:     69.78253  41.83854  34.56079  1      313
siesta:     77.83436  41.83854  34.56079  1      314
siesta:     85.88619  41.83854  34.56079  1      315
siesta:     33.54929  44.16290  34.56079  1      316
siesta:     41.60112  44.16290  34.56079  1      317
siesta:     49.65295  44.16290  34.56079  1      318
siesta:     57.70478  44.16290  34.56079  1      319
siesta:     65.75661  44.16290  34.56079  1      320
siesta:     73.80844  44.16290  34.56079  1      321
siesta:     81.86027  44.16290  34.56079  1      322
siesta:     29.52338  46.48726  34.56079  1      323
siesta:     37.57521  46.48726  34.56079  1      324
siesta:     45.62704  46.48726  34.56079  1      325
siesta:     53.67887  46.48726  34.56079  1      326
siesta:     61.73070  46.48726  34.56079  1      327
siesta:     69.78253  46.48726  34.56079  1      328
siesta:     77.83436  46.48726  34.56079  1      329
siesta:     85.88619  46.48726  34.56079  1      330
siesta:     33.54929  48.81163  34.56079  1      331
siesta:     41.60112  48.81163  34.56079  1      332
siesta:     49.65295  48.81163  34.56079  1      333
siesta:     57.70478  48.81163  34.56079  1      334
siesta:     65.75661  48.81163  34.56079  1      335
siesta:     73.80844  48.81163  34.56079  1      336
siesta:     81.86027  48.81163  34.56079  1      337
siesta:     89.91210  48.81163  34.56079  1      338
siesta:      6.86867   1.80173  41.01335  1      339
siesta:     14.89668   1.18281  41.01335  1      340
siesta:     22.92469   0.56390  41.01335  1      341
siesta:     30.95270  -0.05501  41.01335  1      342
siesta:     38.98070  -0.67393  41.01335  1      343
siesta:     47.00871  -1.29284  41.01335  1      344
siesta:     55.03672  -1.91175  41.01335  1      345
siesta:      3.03333   4.42867  41.01335  1      346
siesta:     11.06134   3.80975  41.01335  1      347
siesta:     19.08935   3.19084  41.01335  1      348
siesta:     27.11736   2.57193  41.01335  1      349
siesta:     35.14536   1.95302  41.01335  1      350
siesta:     43.17337   1.33410  41.01335  1      351
siesta:     51.20138   0.71519  41.01335  1      352
siesta:     59.22939   0.09628  41.01335  1      353
siesta:      7.22600   6.43670  41.01335  1      354
siesta:     15.25401   5.81778  41.01335  1      355
siesta:     23.28202   5.19887  41.01335  1      356
siesta:     31.31003   4.57996  41.01335  1      357
siesta:     39.33803   3.96104  41.01335  1      358
siesta:     47.36604   3.34213  41.01335  1      359
siesta:     55.39405   2.72322  41.01335  1      360
siesta:     11.41867   8.44473  41.01335  1      361
siesta:     19.44668   7.82581  41.01335  1      362
siesta:     27.47469   7.20690  41.01335  1      363
siesta:     35.50269   6.58799  41.01335  1      364
siesta:     43.53070   5.96907  41.01335  1      365
siesta:     51.55871   5.35016  41.01335  1      366
siesta:     59.58672   4.73125  41.01335  1      367
siesta:      7.58333  11.07167  41.01335  1      368
siesta:     15.61134  10.45276  41.01335  1      369
siesta:     23.63935   9.83384  41.01335  1      370
siesta:     31.66736   9.21493  41.01335  1      371
siesta:     39.69536   8.59602  41.01335  1      372
siesta:     47.72337   7.97710  41.01335  1      373
siesta:     55.75138   7.35819  41.01335  1      374
siesta:     63.77939   6.73928  41.01335  1      375
siesta:     11.77600  13.07970  41.01335  1      376
siesta:     19.80401  12.46079  41.01335  1      377
siesta:     27.83202  11.84187  41.01335  1      378
siesta:     35.86002  11.22296  41.01335  1      379
siesta:     43.88803  10.60405  41.01335  1      380
siesta:     51.91604   9.98513  41.01335  1      381
siesta:     59.94405   9.36622  41.01335  1      382
siesta:     15.96867  15.08773  41.01335  1      383
siesta:     23.99668  14.46882  41.01335  1      384
siesta:     32.02469  13.84990  41.01335  1      385
siesta:     40.05269  13.23099  41.01335  1      386
siesta:     48.08070  12.61208  41.01335  1      387
siesta:     56.10871  11.99316  41.01335  1      388
siesta:     64.13672  11.37425  41.01335  1      389
siesta:     12.13333  17.71467  41.01335  1      390
siesta:     20.16134  17.09576  41.01335  1      391
siesta:     28.18935  16.47685  41.01335  1      392
siesta:     36.21735  15.85793  41.01335  1      393
siesta:     44.24536  15.23902  41.01335  1      394
siesta:     52.27337  14.62011  41.01335  1      395
siesta:     60.30138  14.00119  41.01335  1      396
siesta:     68.32939  13.38228  41.01335  1      397
siesta:     16.32600  19.72270  41.01335  1      398
siesta:     24.35401  19.10379  41.01335  1      399
siesta:     32.38201  18.48488  41.01335  1      400
siesta:     40.41002  17.86596  41.01335  1      401
siesta:     48.43803  17.24705  41.01335  1      402
siesta:     56.46604  16.62814  41.01335  1      403
siesta:     64.49405  16.00922  41.01335  1      404
siesta:     20.51867  21.73073  41.01335  1      405
siesta:     28.54668  21.11182  41.01335  1      406
siesta:     36.57468  20.49291  41.01335  1      407
siesta:     44.60269  19.87399  41.01335  1      408
siesta:     52.63070  19.25508  41.01335  1      409
siesta:     60.65871  18.63617  41.01335  1      410
siesta:     68.68672  18.01725  41.01335  1      411
siesta:     16.68333  24.35768  41.01335  1      412
siesta:     24.71134  23.73876  41.01335  1      413
siesta:     32.73934  23.11985  41.01335  1      414
siesta:     40.76735  22.50094  41.01335  1      415
siesta:     48.79536  21.88202  41.01335  1      416
siesta:     56.82337  21.26311  41.01335  1      417
siesta:     64.85138  20.64420  41.01335  1      418
siesta:     72.87939  20.02528  41.01335  1      419
siesta:     20.87600  26.36570  41.01335  1      420
siesta:     28.90401  25.74679  41.01335  1      421
siesta:     36.93201  25.12788  41.01335  1      422
siesta:     44.96002  24.50897  41.01335  1      423
siesta:     52.98803  23.89005  41.01335  1      424
siesta:     61.01604  23.27114  41.01335  1      425
siesta:     69.04405  22.65223  41.01335  1      426
siesta:     25.06867  28.37373  41.01335  1      427
siesta:     33.09667  27.75482  41.01335  1      428
siesta:     41.12468  27.13591  41.01335  1      429
siesta:     49.15269  26.51699  41.01335  1      430
siesta:     57.18070  25.89808  41.01335  1      431
siesta:     65.20871  25.27917  41.01335  1      432
siesta:     73.23671  24.66026  41.01335  1      433
siesta:     21.23333  31.00068  41.01335  1      434
siesta:     29.26134  30.38176  41.01335  1      435
siesta:     37.28934  29.76285  41.01335  1      436
siesta:     45.31735  29.14394  41.01335  1      437
siesta:     53.34536  28.52502  41.01335  1      438
siesta:     61.37337  27.90611  41.01335  1      439
siesta:     69.40138  27.28720  41.01335  1      440
siesta:     77.42938  26.66828  41.01335  1      441
siesta:     25.42600  33.00871  41.01335  1      442
siesta:     33.45400  32.38979  41.01335  1      443
siesta:     41.48201  31.77088  41.01335  1      444
siesta:     49.51002  31.15197  41.01335  1      445
siesta:     57.53803  30.53305  41.01335  1      446
siesta:     65.56604  29.91414  41.01335  1      447
siesta:     73.59404  29.29523  41.01335  1      448
siesta:     29.61866  35.01674  41.01335  1      449
siesta:     37.64667  34.39782  41.01335  1      450
siesta:     45.67468  33.77891  41.01335  1      451
siesta:     53.70269  33.16000  41.01335  1      452
siesta:     61.73070  32.54108  41.01335  1      453
siesta:     69.75871  31.92217  41.01335  1      454
siesta:     77.78671  31.30326  41.01335  1      455
siesta:     25.78333  37.64368  41.01335  1      456
siesta:     33.81133  37.02477  41.01335  1      457
siesta:     41.83934  36.40585  41.01335  1      458
siesta:     49.86735  35.78694  41.01335  1      459
siesta:     57.89536  35.16803  41.01335  1      460
siesta:     65.92337  34.54911  41.01335  1      461
siesta:     73.95137  33.93020  41.01335  1      462
siesta:     81.97938  33.31129  41.01335  1      463
siesta:     29.97599  39.65171  41.01335  1      464
siesta:     38.00400  39.03280  41.01335  1      465
siesta:     46.03201  38.41388  41.01335  1      466
siesta:     54.06002  37.79497  41.01335  1      467
siesta:     62.08803  37.17606  41.01335  1      468
siesta:     70.11604  36.55714  41.01335  1      469
siesta:     78.14404  35.93823  41.01335  1      470
siesta:     34.16866  41.65974  41.01335  1      471
siesta:     42.19667  41.04083  41.01335  1      472
siesta:     50.22468  40.42191  41.01335  1      473
siesta:     58.25269  39.80300  41.01335  1      474
siesta:     66.28070  39.18409  41.01335  1      475
siesta:     74.30870  38.56517  41.01335  1      476
siesta:     82.33671  37.94626  41.01335  1      477
siesta:     30.33332  44.28668  41.01335  1      478
siesta:     38.36133  43.66777  41.01335  1      479
siesta:     46.38934  43.04886  41.01335  1      480
siesta:     54.41735  42.42994  41.01335  1      481
siesta:     62.44536  41.81103  41.01335  1      482
siesta:     70.47336  41.19212  41.01335  1      483
siesta:     78.50137  40.57320  41.01335  1      484
siesta:     86.52938  39.95429  41.01335  1      485
siesta:     34.52599  46.29471  41.01335  1      486
siesta:     42.55400  45.67580  41.01335  1      487
siesta:     50.58201  45.05689  41.01335  1      488
siesta:     58.61002  44.43797  41.01335  1      489
siesta:     66.63803  43.81906  41.01335  1      490
siesta:     74.66603  43.20015  41.01335  1      491
siesta:     82.69404  42.58123  41.01335  1      492
siesta:     38.71866  48.30274  41.01335  1      493
siesta:     46.74667  47.68383  41.01335  1      494
siesta:     54.77468  47.06492  41.01335  1      495
siesta:     62.80269  46.44600  41.01335  1      496
siesta:     70.83069  45.82709  41.01335  1      497
siesta:     78.85870  45.20818  41.01335  1      498
siesta:     86.88671  44.58926  41.01335  1      499
siesta:     34.88332  50.92968  41.01335  1      500
siesta:     42.91133  50.31077  41.01335  1      501
siesta:     50.93934  49.69186  41.01335  1      502
siesta:     58.96735  49.07294  41.01335  1      503
siesta:     66.99536  48.45403  41.01335  1      504
siesta:     75.02336  47.83512  41.01335  1      505
siesta:     83.05137  47.21620  41.01335  1      506
siesta:     91.07938  46.59729  41.01335  1      507
siesta:      1.51667   2.21433  41.01335  1      508
siesta:      9.54467   1.59542  41.01335  1      509
siesta:     17.57268   0.97651  41.01335  1      510
siesta:     25.60069   0.35759  41.01335  1      511
siesta:     33.62870  -0.26132  41.01335  1      512
siesta:     41.65671  -0.88023  41.01335  1      513
siesta:     49.68471  -1.49915  41.01335  1      514
siesta:     57.71272  -2.11806  41.01335  1      515
siesta:      5.70934   4.22236  41.01335  1      516
siesta:     13.73734   3.60345  41.01335  1      517
siesta:     21.76535   2.98454  41.01335  1      518
siesta:     29.79336   2.36562  41.01335  1      519
siesta:     37.82137   1.74671  41.01335  1      520
siesta:     45.84938   1.12780  41.01335  1      521
siesta:     53.87738   0.50888  41.01335  1      522
siesta:      9.90200   6.23039  41.01335  1      523
siesta:     17.93001   5.61148  41.01335  1      524
siesta:     25.95802   4.99257  41.01335  1      525
siesta:     33.98603   4.37365  41.01335  1      526
siesta:     42.01404   3.75474  41.01335  1      527
siesta:     50.04204   3.13583  41.01335  1      528
siesta:     58.07005   2.51691  41.01335  1      529
siesta:      6.06666   8.85734  41.01335  1      530
siesta:     14.09467   8.23842  41.01335  1      531
siesta:     22.12268   7.61951  41.01335  1      532
siesta:     30.15069   7.00060  41.01335  1      533
siesta:     38.17870   6.38168  41.01335  1      534
siesta:     46.20671   5.76277  41.01335  1      535
siesta:     54.23471   5.14386  41.01335  1      536
siesta:     62.26272   4.52494  41.01335  1      537
siesta:     10.25933  10.86537  41.01335  1      538
siesta:     18.28734  10.24645  41.01335  1      539
siesta:     26.31535   9.62754  41.01335  1      540
siesta:     34.34336   9.00863  41.01335  1      541
siesta:     42.37137   8.38971  41.01335  1      542
siesta:     50.39937   7.77080  41.01335  1      543
siesta:     58.42738   7.15189  41.01335  1      544
siesta:     14.45200  12.87340  41.01335  1      545
siesta:     22.48001  12.25448  41.01335  1      546
siesta:     30.50802  11.63557  41.01335  1      547
siesta:     38.53603  11.01666  41.01335  1      548
siesta:     46.56404  10.39774  41.01335  1      549
siesta:     54.59204   9.77883  41.01335  1      550
siesta:     62.62005   9.15992  41.01335  1      551
siesta:     10.61666  15.50034  41.01335  1      552
siesta:     18.64467  14.88143  41.01335  1      553
siesta:     26.67268  14.26251  41.01335  1      554
siesta:     34.70069  13.64360  41.01335  1      555
siesta:     42.72870  13.02469  41.01335  1      556
siesta:     50.75670  12.40577  41.01335  1      557
siesta:     58.78471  11.78686  41.01335  1      558
siesta:     66.81272  11.16795  41.01335  1      559
siesta:     14.80933  17.50837  41.01335  1      560
siesta:     22.83734  16.88946  41.01335  1      561
siesta:     30.86535  16.27054  41.01335  1      562
siesta:     38.89336  15.65163  41.01335  1      563
siesta:     46.92136  15.03272  41.01335  1      564
siesta:     54.94937  14.41380  41.01335  1      565
siesta:     62.97738  13.79489  41.01335  1      566
siesta:     19.00200  19.51640  41.01335  1      567
siesta:     27.03001  18.89748  41.01335  1      568
siesta:     35.05802  18.27857  41.01335  1      569
siesta:     43.08603  17.65966  41.01335  1      570
siesta:     51.11403  17.04075  41.01335  1      571
siesta:     59.14204  16.42183  41.01335  1      572
siesta:     67.17005  15.80292  41.01335  1      573
siesta:     15.16666  22.14334  41.01335  1      574
siesta:     23.19467  21.52443  41.01335  1      575
siesta:     31.22268  20.90551  41.01335  1      576
siesta:     39.25069  20.28660  41.01335  1      577
siesta:     47.27869  19.66769  41.01335  1      578
siesta:     55.30670  19.04877  41.01335  1      579
siesta:     63.33471  18.42986  41.01335  1      580
siesta:     71.36272  17.81095  41.01335  1      581
siesta:     19.35933  24.15137  41.01335  1      582
siesta:     27.38734  23.53246  41.01335  1      583
siesta:     35.41535  22.91354  41.01335  1      584
siesta:     43.44336  22.29463  41.01335  1      585
siesta:     51.47136  21.67572  41.01335  1      586
siesta:     59.49937  21.05680  41.01335  1      587
siesta:     67.52738  20.43789  41.01335  1      588
siesta:     23.55200  26.15940  41.01335  1      589
siesta:     31.58001  25.54049  41.01335  1      590
siesta:     39.60802  24.92157  41.01335  1      591
siesta:     47.63602  24.30266  41.01335  1      592
siesta:     55.66403  23.68375  41.01335  1      593
siesta:     63.69204  23.06483  41.01335  1      594
siesta:     71.72005  22.44592  41.01335  1      595
siesta:     19.71666  28.78634  41.01335  1      596
siesta:     27.74467  28.16743  41.01335  1      597
siesta:     35.77268  27.54852  41.01335  1      598
siesta:     43.80069  26.92960  41.01335  1      599
siesta:     51.82869  26.31069  41.01335  1      600
siesta:     59.85670  25.69178  41.01335  1      601
siesta:     67.88471  25.07286  41.01335  1      602
siesta:     75.91272  24.45395  41.01335  1      603
siesta:     23.90933  30.79437  41.01335  1      604
siesta:     31.93734  30.17546  41.01335  1      605
siesta:     39.96535  29.55655  41.01335  1      606
siesta:     47.99335  28.93763  41.01335  1      607
siesta:     56.02136  28.31872  41.01335  1      608
siesta:     64.04937  27.69981  41.01335  1      609
siesta:     72.07738  27.08089  41.01335  1      610
siesta:     28.10200  32.80240  41.01335  1      611
siesta:     36.13001  32.18349  41.01335  1      612
siesta:     44.15801  31.56458  41.01335  1      613
siesta:     52.18602  30.94566  41.01335  1      614
siesta:     60.21403  30.32675  41.01335  1      615
siesta:     68.24204  29.70784  41.01335  1      616
siesta:     76.27005  29.08892  41.01335  1      617
siesta:     24.26666  35.42935  41.01335  1      618
siesta:     32.29467  34.81043  41.01335  1      619
siesta:     40.32268  34.19152  41.01335  1      620
siesta:     48.35068  33.57261  41.01335  1      621
siesta:     56.37869  32.95369  41.01335  1      622
siesta:     64.40670  32.33478  41.01335  1      623
siesta:     72.43471  31.71587  41.01335  1      624
siesta:     80.46272  31.09695  41.01335  1      625
siesta:     28.45933  37.43738  41.01335  1      626
siesta:     36.48734  36.81846  41.01335  1      627
siesta:     44.51534  36.19955  41.01335  1      628
siesta:     52.54335  35.58064  41.01335  1      629
siesta:     60.57136  34.96172  41.01335  1      630
siesta:     68.59937  34.34281  41.01335  1      631
siesta:     76.62738  33.72390  41.01335  1      632
siesta:     32.65200  39.44541  41.01335  1      633
siesta:     40.68001  38.82649  41.01335  1      634
siesta:     48.70801  38.20758  41.01335  1      635
siesta:     56.73602  37.58867  41.01335  1      636
siesta:     64.76403  36.96975  41.01335  1      637
siesta:     72.79204  36.35084  41.01335  1      638
siesta:     80.82005  35.73193  41.01335  1      639
siesta:     28.81666  42.07235  41.01335  1      640
siesta:     36.84467  41.45343  41.01335  1      641
siesta:     44.87267  40.83452  41.01335  1      642
siesta:     52.90068  40.21561  41.01335  1      643
siesta:     60.92869  39.59670  41.01335  1      644
siesta:     68.95670  38.97778  41.01335  1      645
siesta:     76.98471  38.35887  41.01335  1      646
siesta:     85.01271  37.73996  41.01335  1      647
siesta:     33.00933  44.08038  41.01335  1      648
siesta:     41.03734  43.46146  41.01335  1      649
siesta:     49.06534  42.84255  41.01335  1      650
siesta:     57.09335  42.22364  41.01335  1      651
siesta:     65.12136  41.60472  41.01335  1      652
siesta:     73.14937  40.98581  41.01335  1      653
siesta:     81.17738  40.36690  41.01335  1      654
siesta:     37.20200  46.08841  41.01335  1      655
siesta:     45.23000  45.46949  41.01335  1      656
siesta:     53.25801  44.85058  41.01335  1      657
siesta:     61.28602  44.23167  41.01335  1      658
siesta:     69.31403  43.61275  41.01335  1      659
siesta:     77.34204  42.99384  41.01335  1      660
siesta:     85.37004  42.37493  41.01335  1      661
siesta:     33.36666  48.71535  41.01335  1      662
siesta:     41.39466  48.09644  41.01335  1      663
siesta:     49.42267  47.47752  41.01335  1      664
siesta:     57.45068  46.85861  41.01335  1      665
siesta:     65.47869  46.23970  41.01335  1      666
siesta:     73.50670  45.62078  41.01335  1      667
siesta:     81.53471  45.00187  41.01335  1      668
siesta:     89.56271  44.38296  41.01335  1      669
siesta:     37.55933  50.72338  41.01335  1      670
siesta:     45.58733  50.10447  41.01335  1      671
siesta:     53.61534  49.48555  41.01335  1      672
siesta:     61.64335  48.86664  41.01335  1      673
siesta:     69.67136  48.24773  41.01335  1      674
siesta:     77.69937  47.62881  41.01335  1      675
siesta:     85.72737  47.00990  41.01335  1      676

siesta: System type = slab      

initatomlists: Number of atoms, orbitals, and projectors:    676  6084  5408

siesta: ******************** Simulation parameters ****************************
siesta:
siesta: The following are some of the parameters of the simulation.
siesta: A complete list of the parameters used, including default values,
siesta: can be found in file out.fdf
siesta:
redata: Spin configuration                          = none
redata: Number of spin components                   = 1
redata: Time-Reversal Symmetry                      = T
redata: Spin spiral                                 = F
redata: Long output                                 =   F
redata: Number of Atomic Species                    =        1
redata: Charge density info will appear in .RHO file
redata: Write Mulliken Pop.                         = NO
redata: Matel table size (NRTAB)                    =     1024
redata: Mesh Cutoff                                 =   300.0000 Ry
redata: Net charge of the system                    =     0.0000 |e|
redata: Min. number of SCF Iter                     =        3
redata: Max. number of SCF Iter                     =      300
redata: SCF convergence failure will abort job
redata: SCF mix quantity                            = Hamiltonian
redata: Mix DM or H after convergence               =   F
redata: Recompute H after scf cycle                 =   F
redata: Mix DM in first SCF step                    =   T
redata: Write Pulay info on disk                    =   F
redata: New DM Occupancy tolerance                  = 0.000000000001
redata: No kicks to SCF
redata: DM Mixing Weight for Kicks                  =     0.5000
redata: Require Harris convergence for SCF          =   F
redata: Harris energy tolerance for SCF             =     0.000100 eV
redata: Require DM convergence for SCF              =   T
redata: DM tolerance for SCF                        =     0.000100
redata: Require EDM convergence for SCF             =   F
redata: EDM tolerance for SCF                       =     0.001000 eV
redata: Require H convergence for SCF               =   T
redata: Hamiltonian tolerance for SCF               =     0.001000 eV
redata: Require (free) Energy convergence for SCF   =   F
redata: (free) Energy tolerance for SCF             =     0.000100 eV
redata: Using DFT-D3 dispersion                     =   T
redata: Using Saved Data (generic)                  =   F
redata: Use continuation files for DM               =   T
redata: Neglect nonoverlap interactions             =   F
redata: Method of Calculation                       = Diagonalization
redata: Electronic Temperature                      =   299.9863 K
redata: Fix the spin of the system                  =   F
redata: Max. number of TDED Iter                    =        1
redata: Number of TDED substeps                     =        3
redata: Dynamics option                             = CG coord. optimization
redata: Variable cell                               =   F
redata: Use continuation files for CG               =   F
redata: Max atomic displ per move                   =     0.2646 Ang
redata: Maximum number of optimization moves        =      200
redata: Force tolerance                             =     0.0100 eV/Ang
mix.SCF: Pulay mixing                            = Pulay
mix.SCF:    Variant                              = stable
mix.SCF:    History steps                        = 12
mix.SCF:    Linear mixing weight                 =     0.100000
mix.SCF:    Mixing weight                        =     0.100000
mix.SCF:    SVD condition                        = 0.1000E-07
redata: Save all siesta data in one NC              =   F
redata: ***********************************************************************

%block SCF.Mixers
  Pulay
%endblock SCF.Mixers

%block SCF.Mixer.Pulay
  # Mixing method
  method pulay
  variant stable

  # Mixing options
  weight 0.1000
  weight.linear 0.1000
  history 12
%endblock SCF.Mixer.Pulay
 
DFT-D3: loading default parameters for functional PBE.
DM_history_depth set to one: no extrapolation allowed by default for geometry relaxation
Size of DM history Fstack: 1
Total number of electrons:  2704.000000
Total ionic charge:  2704.000000

* ProcessorY, Blocksize:    8  64


* Orbital distribution balance (max,min):   128    64

 Kpoints in:            1 . Kpoints trimmed:            1

siesta: k-grid: Number of k-points = 1
siesta: k-points from Monkhorst-Pack grid
siesta: k-cutoff (effective) =    15.990 Ang
siesta: k-point supercell and displacements
siesta: k-grid:     1     0     0      0.000
siesta: k-grid:     0     1     0      0.000
siesta: k-grid:     0     0     1      0.000
 
diag: Algorithm                                     = D&C
diag: Parallel over k                               =   F
diag: Use parallel 2D distribution                  =   T
diag: Parallel block-size                           = 64
diag: Parallel distribution                         =     8 x     8
diag: Used triangular part                          = Lower
diag: Absolute tolerance                            =  0.100E-15
diag: Orthogonalization factor                      =  0.100E-05
diag: Memory factor                                 =  1.0000
 
siesta: Constraint v=[  0.00000,  0.00000,  1.00000] (676): center-dir
  [ 1 -- 676 ]
 
 
ts: **************************************************************
ts: Save H and S matrices                           =    F
ts: Save DM and EDM matrices                        =    F
ts: Only save the overlap matrix S                  =    F
ts: **************************************************************
 
************************ Begin: TS CHECKS AND WARNINGS ************************
************************ End: TS CHECKS AND WARNINGS **************************


                     ====================================
                        Begin CG opt. move =      0
                     ====================================

outcell: Unit cell vectors (Ang):
       31.956337   -1.230000    0.000000
       17.043380   27.060000    0.000000
        0.000000    0.000000   40.000000

outcell: Cell vector modules (Ang)   :   31.980000   31.980000   40.000000
outcell: Cell angles (23,13,12) (deg):     90.0000     90.0000     60.0000
outcell: Cell volume (Ang**3)        :  35428.0739
<dSpData1D:S at geom step 0
  <sparsity:sparsity for geom step 0
    nrows_g=6084 nrows=128 sparsity=.0033 nnzs=122321, refcount: 7>
  <dData1D:(new from dSpData1D) n=122321, refcount: 1>
refcount: 1>
new_DM -- step:     1
Initializing Density Matrix...
 
Attempting to read DM from file... Failed...
DM filled with atomic data:
<dSpData2D:DM initialized from atoms
  <sparsity:sparsity for geom step 0
    nrows_g=6084 nrows=128 sparsity=.0033 nnzs=122321, refcount: 8>
  <dData2D:DM n=122321 m=1, refcount: 1>
refcount: 1>
No. of atoms with KB's overlaping orbs in proc 0. Max # of overlaps:     287     231

InitMesh: MESH = 300 x 300 x 432 = 38880000
InitMesh: Mesh cutoff (required, used) =   300.000   322.366 Ry
New grid distribution [1]: sub = 2
New grid distribution [2]: sub = 2
New grid distribution [3]: sub = 2
Setting up quadratic distribution...

stepf: Fermi-Dirac step function

siesta: Program's energy decomposition (eV):
siesta: Ebs     =    -39510.763165
siesta: Eions   =    190741.314426
siesta: Ena     =     42118.420905
siesta: Ekin    =     74496.658227
siesta: Enl     =     -3354.071158
siesta: Eso     =         0.000000
siesta: Edftu   =         0.000000
siesta: DEna    =      5719.358953
siesta: DUscf   =       366.068926
siesta: DUext   =         0.000000
siesta: Ex      =    -35635.686664
siesta: Ec      =     -3436.935053
siesta: Exc     =    -39072.621717
siesta: EbV     =         0.000000
siesta: eta*DQ  =         0.000000
siesta: Emadel  =         0.000000
siesta: Emeta   =         0.000000
siesta: Emolmec =         0.000000
siesta: Ekinion =         0.000000
siesta: Eharris =   -113139.812168
siesta: Etot    =   -110467.500292
siesta: FreeEng =   -110467.500292

        iscf     Eharris(eV)        E_KS(eV)     FreeEng(eV)     dDmax    Ef(eV) dHmax(eV)
   scf:    1  -113139.812168  -110467.500292  -110467.500292  1.203904 -1.369527  4.744447
timer: Routine,Calls,Time,% = IterSCF        1       6.219  46.15
   scf:    2  -110497.319167  -110482.606547  -110482.606547  0.008956 -1.741670  3.994013
   scf:    3  -110552.180165  -110522.159165  -110522.159165  0.048049 -3.719714  0.295724
   scf:    4  -110523.681079  -110523.049363  -110523.049363  0.007619 -3.978648  0.146896
   scf:    5  -110523.072674  -110523.103734  -110523.103734  0.001255 -3.899415  0.089753
   scf:    6  -110523.066804  -110523.102514  -110523.102514  0.001377 -3.972770  0.085382
   scf:    7  -110523.130342  -110523.121994  -110523.121994  0.001069 -3.947939  0.007789
   scf:    8  -110523.121978  -110523.122105  -110523.122105  0.000080 -3.951839  0.003229
   scf:    9  -110523.122049  -110523.122105  -110523.122105  0.000072 -3.953081  0.004222
   scf:   10  -110523.122200  -110523.122161  -110523.122161  0.000064 -3.950517  0.000542

SCF Convergence by DM+H criterion
max |DM_out - DM_in|         :     0.0000640405
max |H_out - H_in|      (eV) :     0.0005424181
SCF cycle converged after 10 iterations

Using DM_out to compute the final energy and forces
No. of atoms with KB's overlaping orbs in proc 0. Max # of overlaps:     287     231
System symmetry is of type slab but no DFTD3.Periodic list was found. Attempting to guess symmetry for D3.
Could not guess the right amount of periodicity directions for D3.
Enabling periodicity on all directions.

siesta: E_KS(eV) =          -110590.5482

siesta: E_KS - E_eggbox =   -110590.5482

siesta: Atomic forces (eV/Ang):
----------------------------------------
   Tot   -0.000000    0.000000    0.016397
----------------------------------------
   Max    0.034023
   Res    0.010237    sqrt( Sum f_i^2 / 3N )
----------------------------------------
   Max    0.034023    constrained

Stress tensor Voigt[x,y,z,yz,xz,xy] (kbar):      -25.88      -25.88       -4.85       -0.00       -0.00        0.00
(Free)E + p*V (eV/cell)  -110173.3109
Target enthalpy (eV/cell)  -110590.5482

                     ====================================
                        Begin CG opt. move =      1
                     ====================================

outcell: Unit cell vectors (Ang):
       31.956337   -1.230000    0.000000
       17.043380   27.060000    0.000000
        0.000000    0.000000   40.000000

outcell: Cell vector modules (Ang)   :   31.980000   31.980000   40.000000
outcell: Cell angles (23,13,12) (deg):     90.0000     90.0000     60.0000
outcell: Cell volume (Ang**3)        :  35428.0739
<dSpData1D:S at geom step 1
  <sparsity:sparsity for geom step 1
    nrows_g=6084 nrows=128 sparsity=.0033 nnzs=122102, refcount: 7>
  <dData1D:(new from dSpData1D) n=122102, refcount: 1>
refcount: 1>
new_DM -- step:     2
Re-using DM from previous geometries...
Number of DMs in history: 1
 DM extrapolation coefficients: 
1   1.00000
New DM after history re-use:
<dSpData2D:SpM extrapolated using coords
  <sparsity:sparsity for geom step 1
    nrows_g=6084 nrows=128 sparsity=.0033 nnzs=122102, refcount: 9>
  <dData2D:(temp array for extrapolation) n=122102 m=1, refcount: 1>
refcount: 1>
No. of atoms with KB's overlaping orbs in proc 0. Max # of overlaps:     285     231

InitMesh: MESH = 300 x 300 x 432 = 38880000
InitMesh: Mesh cutoff (required, used) =   300.000   322.366 Ry
New grid distribution [1]: sub = 2
New grid distribution [2]: sub = 2
New grid distribution [3]: sub = 2
Setting up quadratic distribution...

        iscf     Eharris(eV)        E_KS(eV)     FreeEng(eV)     dDmax    Ef(eV) dHmax(eV)
   scf:    1  -110591.241410  -110590.649069  -110590.649069  0.005370 -3.951606  0.072668
   scf:    2  -110590.448085  -110590.586896  -110590.586896  0.002391 -3.948202  0.488175
   scf:    3  -110590.658835  -110590.651674  -110590.651674  0.002021 -3.950974  0.010135
   scf:    4  -110590.652936  -110590.652363  -110590.652363  0.000148 -3.950606  0.005383
   scf:    5  -110590.652724  -110590.652553  -110590.652553  0.000080 -3.950842  0.002389
   scf:    6  -110590.652648  -110590.652606  -110590.652606  0.000063 -3.951158  0.000609

SCF Convergence by DM+H criterion
max |DM_out - DM_in|         :     0.0000633787
max |H_out - H_in|      (eV) :     0.0006089790
SCF cycle converged after 6 iterations

Using DM_out to compute the final energy and forces
No. of atoms with KB's overlaping orbs in proc 0. Max # of overlaps:     285     231
System symmetry is of type slab but no DFTD3.Periodic list was found. Attempting to guess symmetry for D3.
Could not guess the right amount of periodicity directions for D3.
Enabling periodicity on all directions.

siesta: E_KS(eV) =          -110590.4537

siesta: Atomic forces (eV/Ang):
----------------------------------------
   Tot    0.000010   -0.000009    0.010285
----------------------------------------
   Max    0.453596
   Res    0.153010    sqrt( Sum f_i^2 / 3N )
----------------------------------------
   Max    0.453596    constrained

Stress tensor Voigt[x,y,z,yz,xz,xy] (kbar):      -25.90      -25.98       -4.71       -0.00        0.00        0.06
(Free)E + p*V (eV/cell)  -110173.3548
Target enthalpy (eV/cell)  -110590.4537

                     ====================================
                        Begin CG opt. move =      2
                     ====================================

outcell: Unit cell vectors (Ang):
       31.956337   -1.230000    0.000000
       17.043380   27.060000    0.000000
        0.000000    0.000000   40.000000

outcell: Cell vector modules (Ang)   :   31.980000   31.980000   40.000000
outcell: Cell angles (23,13,12) (deg):     90.0000     90.0000     60.0000
outcell: Cell volume (Ang**3)        :  35428.0739
<dSpData1D:S at geom step 2
  <sparsity:sparsity for geom step 2
    nrows_g=6084 nrows=128 sparsity=.0033 nnzs=122284, refcount: 7>
  <dData1D:(new from dSpData1D) n=122284, refcount: 1>
refcount: 1>
new_DM -- step:     3
Re-using DM from previous geometries...
Number of DMs in history: 1
 DM extrapolation coefficients: 
1   1.00000
New DM after history re-use:
<dSpData2D:SpM extrapolated using coords
  <sparsity:sparsity for geom step 2
    nrows_g=6084 nrows=128 sparsity=.0033 nnzs=122284, refcount: 9>
  <dData2D:(temp array for extrapolation) n=122284 m=1, refcount: 1>
refcount: 1>
No. of atoms with KB's overlaping orbs in proc 0. Max # of overlaps:     286     231

InitMesh: MESH = 300 x 300 x 432 = 38880000
InitMesh: Mesh cutoff (required, used) =   300.000   322.366 Ry
New grid distribution [1]: sub = 2
New grid distribution [2]: sub = 2
New grid distribution [3]: sub = 2
Setting up quadratic distribution...

        iscf     Eharris(eV)        E_KS(eV)     FreeEng(eV)     dDmax    Ef(eV) dHmax(eV)
   scf:    1  -110590.021025  -110590.421468  -110590.421468  0.003854 -3.950647  0.021095
   scf:    2  -110590.413689  -110590.419640  -110590.419640  0.000873 -3.952573  0.094527
   scf:    3  -110590.422142  -110590.422236  -110590.422236  0.000709 -3.951084  0.006771
   scf:    4  -110590.422757  -110590.422517  -110590.422517  0.000087 -3.951125  0.003772
   scf:    5  -110590.422695  -110590.422610  -110590.422610  0.000054 -3.951185  0.001782
   scf:    6  -110590.422662  -110590.422639  -110590.422639  0.000047 -3.950960  0.000353

SCF Convergence by DM+H criterion
max |DM_out - DM_in|         :     0.0000474101
max |H_out - H_in|      (eV) :     0.0003531442
SCF cycle converged after 6 iterations

Using DM_out to compute the final energy and forces
No. of atoms with KB's overlaping orbs in proc 0. Max # of overlaps:     286     231
System symmetry is of type slab but no DFTD3.Periodic list was found. Attempting to guess symmetry for D3.
Could not guess the right amount of periodicity directions for D3.
Enabling periodicity on all directions.

siesta: E_KS(eV) =          -110590.5653

siesta: Atomic forces (eV/Ang):
----------------------------------------
   Tot    0.000000   -0.000001    0.016426
----------------------------------------
   Max    0.122827
   Res    0.042373    sqrt( Sum f_i^2 / 3N )
----------------------------------------
   Max    0.122827    constrained

Stress tensor Voigt[x,y,z,yz,xz,xy] (kbar):      -25.88      -25.91       -4.81       -0.00        0.00        0.02
(Free)E + p*V (eV/cell)  -110173.3872
Target enthalpy (eV/cell)  -110590.5653

cgvc: Finished line minimization    1.  Mean atomic displacement =    0.0054

                     ====================================
                        Begin CG opt. move =      3
                     ====================================

outcell: Unit cell vectors (Ang):
       31.956337   -1.230000    0.000000
       17.043380   27.060000    0.000000
        0.000000    0.000000   40.000000

outcell: Cell vector modules (Ang)   :   31.980000   31.980000   40.000000
outcell: Cell angles (23,13,12) (deg):     90.0000     90.0000     60.0000
outcell: Cell volume (Ang**3)        :  35428.0739
<dSpData1D:S at geom step 3
  <sparsity:sparsity for geom step 3
    nrows_g=6084 nrows=128 sparsity=.0033 nnzs=122237, refcount: 7>
  <dData1D:(new from dSpData1D) n=122237, refcount: 1>
refcount: 1>
new_DM -- step:     4
Re-using DM from previous geometries...
Number of DMs in history: 1
 DM extrapolation coefficients: 
1   1.00000
New DM after history re-use:
<dSpData2D:SpM extrapolated using coords
  <sparsity:sparsity for geom step 3
    nrows_g=6084 nrows=128 sparsity=.0033 nnzs=122237, refcount: 9>
  <dData2D:(temp array for extrapolation) n=122237 m=1, refcount: 1>
refcount: 1>
No. of atoms with KB's overlaping orbs in proc 0. Max # of overlaps:     285     231

InitMesh: MESH = 300 x 300 x 432 = 38880000
InitMesh: Mesh cutoff (required, used) =   300.000   322.366 Ry
New grid distribution [1]: sub = 2
New grid distribution [2]: sub = 2
New grid distribution [3]: sub = 2
Setting up quadratic distribution...

        iscf     Eharris(eV)        E_KS(eV)     FreeEng(eV)     dDmax    Ef(eV) dHmax(eV)
   scf:    1  -110590.839693  -110590.654364  -110590.654364  0.000343 -3.950881  0.010489
   scf:    2  -110590.649611  -110590.652887  -110590.652887  0.000247 -3.950525  0.068942
   scf:    3  -110590.654597  -110590.654416  -110590.654416  0.000213 -3.950958  0.000884
   scf:    4  -110590.654425  -110590.654422  -110590.654422  0.000015 -3.950953  0.000369

SCF Convergence by DM+H criterion
max |DM_out - DM_in|         :     0.0000154319
max |H_out - H_in|      (eV) :     0.0003694964
SCF cycle converged after 4 iterations

Using DM_out to compute the final energy and forces
No. of atoms with KB's overlaping orbs in proc 0. Max # of overlaps:     285     231
System symmetry is of type slab but no DFTD3.Periodic list was found. Attempting to guess symmetry for D3.
Could not guess the right amount of periodicity directions for D3.
Enabling periodicity on all directions.

siesta: E_KS(eV) =          -110590.5969

siesta: Atomic forces (eV/Ang):
----------------------------------------
   Tot   -0.000000   -0.000002    0.014155
----------------------------------------
   Max    0.109977
   Res    0.037685    sqrt( Sum f_i^2 / 3N )
----------------------------------------
   Max    0.109977    constrained

Stress tensor Voigt[x,y,z,yz,xz,xy] (kbar):      -25.89      -25.92       -4.77        0.00        0.00        0.02
(Free)E + p*V (eV/cell)  -110173.5636
Target enthalpy (eV/cell)  -110590.5969

                     ====================================
                        Begin CG opt. move =      4
                     ====================================

outcell: Unit cell vectors (Ang):
       31.956337   -1.230000    0.000000
       17.043380   27.060000    0.000000
        0.000000    0.000000   40.000000

outcell: Cell vector modules (Ang)   :   31.980000   31.980000   40.000000
outcell: Cell angles (23,13,12) (deg):     90.0000     90.0000     60.0000
outcell: Cell volume (Ang**3)        :  35428.0739
<dSpData1D:S at geom step 4
  <sparsity:sparsity for geom step 4
    nrows_g=6084 nrows=128 sparsity=.0033 nnzs=122102, refcount: 7>
  <dData1D:(new from dSpData1D) n=122102, refcount: 1>
refcount: 1>
new_DM -- step:     5
Re-using DM from previous geometries...
Number of DMs in history: 1
 DM extrapolation coefficients: 
1   1.00000
New DM after history re-use:
<dSpData2D:SpM extrapolated using coords
  <sparsity:sparsity for geom step 4
    nrows_g=6084 nrows=128 sparsity=.0033 nnzs=122102, refcount: 9>
  <dData2D:(temp array for extrapolation) n=122102 m=1, refcount: 1>
refcount: 1>
No. of atoms with KB's overlaping orbs in proc 0. Max # of overlaps:     285     231

InitMesh: MESH = 300 x 300 x 432 = 38880000
InitMesh: Mesh cutoff (required, used) =   300.000   322.366 Ry
New grid distribution [1]: sub = 2
New grid distribution [2]: sub = 2
New grid distribution [3]: sub = 2
Setting up quadratic distribution...

        iscf     Eharris(eV)        E_KS(eV)     FreeEng(eV)     dDmax    Ef(eV) dHmax(eV)
   scf:    1  -110591.015375  -110590.731432  -110590.731432  0.000549 -3.951228  0.018833
   scf:    2  -110590.715820  -110590.726557  -110590.726557  0.000383 -3.950519  0.128263
   scf:    3  -110590.732191  -110590.731585  -110590.731585  0.000335 -3.951155  0.001504
   scf:    4  -110590.731606  -110590.731598  -110590.731598  0.000021 -3.950879  0.000517

SCF Convergence by DM+H criterion
max |DM_out - DM_in|         :     0.0000214665
max |H_out - H_in|      (eV) :     0.0005165404
SCF cycle converged after 4 iterations

Using DM_out to compute the final energy and forces
No. of atoms with KB's overlaping orbs in proc 0. Max # of overlaps:     285     231
System symmetry is of type slab but no DFTD3.Periodic list was found. Attempting to guess symmetry for D3.
Could not guess the right amount of periodicity directions for D3.
Enabling periodicity on all directions.

siesta: E_KS(eV) =          -110590.6399

siesta: Atomic forces (eV/Ang):
----------------------------------------
   Tot    0.000001   -0.000001    0.008068
----------------------------------------
   Max    0.089236
   Res    0.030433    sqrt( Sum f_i^2 / 3N )
----------------------------------------
   Max    0.089236    constrained

Stress tensor Voigt[x,y,z,yz,xz,xy] (kbar):      -25.91      -25.93       -4.71       -0.00        0.00        0.01
(Free)E + p*V (eV/cell)  -110173.8490
Target enthalpy (eV/cell)  -110590.6399

                     ====================================
                        Begin CG opt. move =      5
                     ====================================

outcell: Unit cell vectors (Ang):
       31.956337   -1.230000    0.000000
       17.043380   27.060000    0.000000
        0.000000    0.000000   40.000000

outcell: Cell vector modules (Ang)   :   31.980000   31.980000   40.000000
outcell: Cell angles (23,13,12) (deg):     90.0000     90.0000     60.0000
outcell: Cell volume (Ang**3)        :  35428.0739
<dSpData1D:S at geom step 5
  <sparsity:sparsity for geom step 5
    nrows_g=6084 nrows=128 sparsity=.0033 nnzs=121947, refcount: 7>
  <dData1D:(new from dSpData1D) n=121947, refcount: 1>
refcount: 1>
new_DM -- step:     6
Re-using DM from previous geometries...
Number of DMs in history: 1
 DM extrapolation coefficients: 
1   1.00000
New DM after history re-use:
<dSpData2D:SpM extrapolated using coords
  <sparsity:sparsity for geom step 5
    nrows_g=6084 nrows=128 sparsity=.0033 nnzs=121947, refcount: 9>
  <dData2D:(temp array for extrapolation) n=121947 m=1, refcount: 1>
refcount: 1>
No. of atoms with KB's overlaping orbs in proc 0. Max # of overlaps:     284     231

InitMesh: MESH = 300 x 300 x 432 = 38880000
InitMesh: Mesh cutoff (required, used) =   300.000   322.366 Ry
New grid distribution [1]: sub = 2
New grid distribution [2]: sub = 2
New grid distribution [3]: sub = 2
Setting up quadratic distribution...

        iscf     Eharris(eV)        E_KS(eV)     FreeEng(eV)     dDmax    Ef(eV) dHmax(eV)
   scf:    1  -110591.258346  -110590.835325  -110590.835325  0.000878 -3.951696  0.037068
   scf:    2  -110590.778489  -110590.817539  -110590.817539  0.000770 -3.950420  0.250815
   scf:    3  -110590.838091  -110590.835842  -110590.835842  0.000673 -3.951362  0.002480
   scf:    4  -110590.835900  -110590.835878  -110590.835878  0.000035 -3.951291  0.000832

SCF Convergence by DM+H criterion
max |DM_out - DM_in|         :     0.0000348357
max |H_out - H_in|      (eV) :     0.0008324957
SCF cycle converged after 4 iterations

Using DM_out to compute the final energy and forces
No. of atoms with KB's overlaping orbs in proc 0. Max # of overlaps:     284     231
System symmetry is of type slab but no DFTD3.Periodic list was found. Attempting to guess symmetry for D3.
Could not guess the right amount of periodicity directions for D3.
Enabling periodicity on all directions.

siesta: E_KS(eV) =          -110590.6896

siesta: Atomic forces (eV/Ang):
----------------------------------------
   Tot    0.000004   -0.000001    0.013375
----------------------------------------
   Max    0.056864
   Res    0.020213    sqrt( Sum f_i^2 / 3N )
----------------------------------------
   Max    0.056864    constrained

Stress tensor Voigt[x,y,z,yz,xz,xy] (kbar):      -25.94      -25.95       -4.61       -0.00       -0.00        0.01
(Free)E + p*V (eV/cell)  -110174.2532
Target enthalpy (eV/cell)  -110590.6896

                     ====================================
                        Begin CG opt. move =      6
                     ====================================

outcell: Unit cell vectors (Ang):
       31.956337   -1.230000    0.000000
       17.043380   27.060000    0.000000
        0.000000    0.000000   40.000000

outcell: Cell vector modules (Ang)   :   31.980000   31.980000   40.000000
outcell: Cell angles (23,13,12) (deg):     90.0000     90.0000     60.0000
outcell: Cell volume (Ang**3)        :  35428.0739
<dSpData1D:S at geom step 6
  <sparsity:sparsity for geom step 6
    nrows_g=6084 nrows=128 sparsity=.0033 nnzs=121603, refcount: 7>
  <dData1D:(new from dSpData1D) n=121603, refcount: 1>
refcount: 1>
new_DM -- step:     7
Re-using DM from previous geometries...
Number of DMs in history: 1
 DM extrapolation coefficients: 
1   1.00000
New DM after history re-use:
<dSpData2D:SpM extrapolated using coords
  <sparsity:sparsity for geom step 6
    nrows_g=6084 nrows=128 sparsity=.0033 nnzs=121603, refcount: 9>
  <dData2D:(temp array for extrapolation) n=121603 m=1, refcount: 1>
refcount: 1>
No. of atoms with KB's overlaping orbs in proc 0. Max # of overlaps:     283     231

InitMesh: MESH = 300 x 300 x 432 = 38880000
InitMesh: Mesh cutoff (required, used) =   300.000   322.366 Ry
New grid distribution [1]: sub = 2
New grid distribution [2]: sub = 2
New grid distribution [3]: sub = 2
Setting up quadratic distribution...

        iscf     Eharris(eV)        E_KS(eV)     FreeEng(eV)     dDmax    Ef(eV) dHmax(eV)
   scf:    1  -110591.553922  -110590.953284  -110590.953284  0.001402 -3.952127  0.075344
   scf:    2  -110590.731037  -110590.883615  -110590.883615  0.001596 -3.950300  0.506058
   scf:    3  -110590.964131  -110590.955187  -110590.955187  0.001393 -3.952035  0.004181
   scf:    4  -110590.955347  -110590.955286  -110590.955286  0.000058 -3.951416  0.001334
   scf:    5  -110590.955304  -110590.955296  -110590.955296  0.000020 -3.951689  0.000813

SCF Convergence by DM+H criterion
max |DM_out - DM_in|         :     0.0000204815
max |H_out - H_in|      (eV) :     0.0008125581
SCF cycle converged after 5 iterations

Using DM_out to compute the final energy and forces
No. of atoms with KB's overlaping orbs in proc 0. Max # of overlaps:     283     231
System symmetry is of type slab but no DFTD3.Periodic list was found. Attempting to guess symmetry for D3.
Could not guess the right amount of periodicity directions for D3.
Enabling periodicity on all directions.

siesta: E_KS(eV) =          -110590.7231

siesta: Atomic forces (eV/Ang):
----------------------------------------
   Tot   -0.000002   -0.000002    0.013245
----------------------------------------
   Max    0.062918
   Res    0.016641    sqrt( Sum f_i^2 / 3N )
----------------------------------------
   Max    0.062918    constrained

Stress tensor Voigt[x,y,z,yz,xz,xy] (kbar):      -25.97      -25.97       -4.46        0.00        0.00       -0.00
(Free)E + p*V (eV/cell)  -110174.9740
Target enthalpy (eV/cell)  -110590.7231

                     ====================================
                        Begin CG opt. move =      7
                     ====================================

outcell: Unit cell vectors (Ang):
       31.956337   -1.230000    0.000000
       17.043380   27.060000    0.000000
        0.000000    0.000000   40.000000

outcell: Cell vector modules (Ang)   :   31.980000   31.980000   40.000000
outcell: Cell angles (23,13,12) (deg):     90.0000     90.0000     60.0000
outcell: Cell volume (Ang**3)        :  35428.0739
<dSpData1D:S at geom step 7
  <sparsity:sparsity for geom step 7
    nrows_g=6084 nrows=128 sparsity=.0033 nnzs=122573, refcount: 7>
  <dData1D:(new from dSpData1D) n=122573, refcount: 1>
refcount: 1>
new_DM -- step:     8
Re-using DM from previous geometries...
Number of DMs in history: 1
 DM extrapolation coefficients: 
1   1.00000
New DM after history re-use:
<dSpData2D:SpM extrapolated using coords
  <sparsity:sparsity for geom step 7
    nrows_g=6084 nrows=128 sparsity=.0033 nnzs=122573, refcount: 9>
  <dData2D:(temp array for extrapolation) n=122573 m=1, refcount: 1>
refcount: 1>
No. of atoms with KB's overlaping orbs in proc 0. Max # of overlaps:     288     235

InitMesh: MESH = 300 x 300 x 432 = 38880000
InitMesh: Mesh cutoff (required, used) =   300.000   322.366 Ry
New grid distribution [1]: sub = 2
New grid distribution [2]: sub = 2
New grid distribution [3]: sub = 2
Setting up quadratic distribution...

        iscf     Eharris(eV)        E_KS(eV)     FreeEng(eV)     dDmax    Ef(eV) dHmax(eV)
   scf:    1  -110591.804184  -110591.023586  -110591.023586  0.009398 -3.953300  0.152958
   scf:    2  -110590.158871  -110590.752366  -110590.752366  0.003273 -3.950389  1.016394
   scf:    3  -110591.065983  -110591.030829  -110591.030829  0.002853 -3.952241  0.007721
   scf:    4  -110591.031341  -110591.031146  -110591.031146  0.000093 -3.951916  0.002518
   scf:    5  -110591.031200  -110591.031179  -110591.031179  0.000057 -3.952637  0.001496
   scf:    6  -110591.031180  -110591.031181  -110591.031181  0.000015 -3.952869  0.002132
   scf:    7  -110591.031181  -110591.031183  -110591.031183  0.000013 -3.952916  0.001142
   scf:    8  -110591.031183  -110591.031183  -110591.031183  0.000004 -3.952937  0.000080

SCF Convergence by DM+H criterion
max |DM_out - DM_in|         :     0.0000040322
max |H_out - H_in|      (eV) :     0.0000798701
SCF cycle converged after 8 iterations

Using DM_out to compute the final energy and forces
No. of atoms with KB's overlaping orbs in proc 0. Max # of overlaps:     288     235
System symmetry is of type slab but no DFTD3.Periodic list was found. Attempting to guess symmetry for D3.
Could not guess the right amount of periodicity directions for D3.
Enabling periodicity on all directions.

siesta: E_KS(eV) =          -110590.6642

siesta: Atomic forces (eV/Ang):
----------------------------------------
   Tot    0.000000    0.000023    0.001190
----------------------------------------
   Max    0.118569
   Res    0.043285    sqrt( Sum f_i^2 / 3N )
----------------------------------------
   Max    0.118569    constrained

Stress tensor Voigt[x,y,z,yz,xz,xy] (kbar):      -26.02      -26.00       -4.25       -0.00       -0.00       -0.01
(Free)E + p*V (eV/cell)  -110175.8782
Target enthalpy (eV/cell)  -110590.6642

                     ====================================
                        Begin CG opt. move =      8
                     ====================================

outcell: Unit cell vectors (Ang):
       31.956337   -1.230000    0.000000
       17.043380   27.060000    0.000000
        0.000000    0.000000   40.000000

outcell: Cell vector modules (Ang)   :   31.980000   31.980000   40.000000
outcell: Cell angles (23,13,12) (deg):     90.0000     90.0000     60.0000
outcell: Cell volume (Ang**3)        :  35428.0739
<dSpData1D:S at geom step 8
  <sparsity:sparsity for geom step 8
    nrows_g=6084 nrows=128 sparsity=.0033 nnzs=121594, refcount: 7>
  <dData1D:(new from dSpData1D) n=121594, refcount: 1>
refcount: 1>
new_DM -- step:     9
Re-using DM from previous geometries...
Number of DMs in history: 1
 DM extrapolation coefficients: 
1   1.00000
New DM after history re-use:
<dSpData2D:SpM extrapolated using coords
  <sparsity:sparsity for geom step 8
    nrows_g=6084 nrows=128 sparsity=.0033 nnzs=121594, refcount: 9>
  <dData2D:(temp array for extrapolation) n=121594 m=1, refcount: 1>
refcount: 1>
No. of atoms with KB's overlaping orbs in proc 0. Max # of overlaps:     283     231

InitMesh: MESH = 300 x 300 x 432 = 38880000
InitMesh: Mesh cutoff (required, used) =   300.000   322.366 Ry
New grid distribution [1]: sub = 2
New grid distribution [2]: sub = 2
New grid distribution [3]: sub = 2
Setting up quadratic distribution...

        iscf     Eharris(eV)        E_KS(eV)     FreeEng(eV)     dDmax    Ef(eV) dHmax(eV)
   scf:    1  -110589.628986  -110590.369456  -110590.369456  0.003819 -3.951545  0.196210
   scf:    2  -110589.048551  -110589.954603  -110589.954603  0.004351 -3.957201  1.303281
[...]
   14.72957349    6.26490723   21.71710211   1     378  C
   18.97803332    5.94141455   21.72145043   1     379  C
   23.22775821    5.61645967   21.74931120   1     380  C
   27.47772846    5.28795905   21.78432705   1     381  C
   31.72664172    4.95734533   21.80311766   1     382  C
    8.45345969    7.98027813   21.74536682   1     383  C
   12.69978645    7.65382658   21.72145208   1     384  C
   16.94771413    7.32946190   21.71371768   1     385  C
   21.19703031    7.00517407   21.72897441   1     386  C
   25.44745752    6.67839129   21.75827370   1     387  C
   29.69740954    6.34873344   21.78385339   1     388  C
   33.94590493    6.01822231   21.78858023   1     389  C
    6.42480095    9.37160416   21.74861602   1     390  C
   10.67023850    9.04395827   21.72817940   1     391  C
   14.91703074    8.71811032   21.71371809   1     392  C
   19.16597825    8.39371952   21.71710040   1     393  C
   23.41642384    8.06797822   21.73712095   1     394  C
   27.66721759    7.73953936   21.76197337   1     395  C
   31.91674403    7.40986101   21.77527618   1     396  C
   36.16393011    7.07942735   21.76848184   1     397  C
    8.64107926   10.43453848   21.73281209   1     398  C
   12.88693514   10.10779121   21.71846772   1     399  C
   17.13497662    9.78240966   21.71371647   1     400  C
   21.38506592    9.45688561   21.72363542   1     401  C
   25.63609488    9.12950619   21.74223536   1     402  C
   29.88645900    8.80069294   21.75861098   1     403  C
   34.13501574    8.47135176   21.76121832   1     404  C
   10.85733939   11.49816909   21.72443593   1     405  C
   15.10416921   11.17135347   21.71710038   1     406  C
   19.35352303   10.84568289   21.71846676   1     407  C
   23.60437448   10.51902093   21.72873285   1     408  C
   27.85547206   10.19077630   21.74173455   1     409  C
   32.10517693    9.86234210   21.74934217   1     410  C
   36.35222595    9.53329071   21.74558447   1     411  C
    8.82842753   12.88913822   21.72768260   1     412  C
   13.07389764   12.56155645   21.72363552   1     413  C
   17.32190262   12.23474271   21.72144992   1     414  C
   21.57242533   11.90817588   21.72443612   1     415  C
   25.82367453   11.58037843   21.73069693   1     416  C
   30.07423499   11.25247143   21.73637914   1     417  C
   34.32280003   10.92446171   21.73800057   1     418  C
   38.56864533   10.59591829   21.73337811   1     419  C
   11.04440623   13.95246469   21.72873124   1     420  C
   15.29115906   13.62456991   21.72897414   1     421  C
   19.54056683   13.29731374   21.72817899   1     422  C
   23.79149555   12.96977907   21.72768301   1     423  C
   28.04255182   12.64194945   21.72781955   1     424  C
   32.29251084   12.31484474   21.72843365   1     425  C
   36.53981635   11.98721297   21.72916774   1     426  C
   13.26104590   15.01521661   21.73712085   1     427  C
   17.50905183   14.68698902   21.73759659   1     428  C
   21.75942366   14.35932497   21.73281246   1     429  C
   26.01070416   14.03130741   21.72614509   1     430  C
   30.26141364   13.70420775   21.72180560   1     431  C
   34.50993794   13.37771572   21.72245384   1     432  C
   38.75584990   13.05026505   21.72614425   1     433  C
   11.23190071   16.40674383   21.74223452   1     434  C
   15.47845748   16.07758787   21.74931079   1     435  C
   19.72778263   15.74893960   21.74536708   1     436  C
   23.97878087   15.42060295   21.73337952   1     437  C
   28.22964007   15.09314579   21.72118417   1     438  C
   32.47947094   14.76721167   21.71619550   1     439  C
   36.72680154   14.44100029   21.72118449   1     440  C
   40.97193093   14.11375729   21.73069629   1     441  C
   13.44894802   17.46893684   21.75827343   1     442  C
   17.69686998   17.13919912   21.76140564   1     443  C
   21.94703648   16.81014560   21.74861630   1     444  C
   26.19809135   16.48197442   21.72916846   1     445  C
   30.44840961   16.15601845   21.71505756   1     446  C
   34.69694347   15.83107477   21.71505821   1     447  C
   38.94314635   15.50457701   21.72781923   1     448  C
   15.66687886   18.53032147   21.77548881   1     449  C
   19.91604875   18.20048436   21.76859674   1     450  C
   24.16672915   17.87139303   21.74558433   1     451  C
   28.41724274   17.54464814   21.72245363   1     452  C
   32.66647945   17.21999065   21.71246915   1     453  C
   36.91377091   16.89503606   21.72180687   1     454  C
   41.15946221   16.56814645   21.74173354   1     455  C
   13.63796176   19.92241899   21.78432642   1     456  C
   17.88602465   19.59133761   21.78803740   1     457  C
   22.13576794   19.26139663   21.76848217   1     458  C
   26.38623137   18.93334383   21.73800065   1     459  C
   30.63581403   18.60833498   21.71619602   1     460  C
   34.88415341   18.28442681   21.71619795   1     461  C
   39.13062457   17.95880222   21.73637924   1     462  C
   43.37642365   17.63073106   21.76197322   1     463  C
   15.85689702   20.98313121   21.80295076   1     464  C
   20.10566926   20.65223782   21.79332592   1     465  C
   24.35566814   20.32252414   21.76121844   1     466  C
   28.60548370   19.99643407   21.72843382   1     467  C
   32.85408607   19.67288132   21.71505921   1     468  C
   37.10144553   19.34869784   21.72843496   1     469  C
   41.34781655   19.02207407   21.75861101   1     470  C
   18.07656675   22.04371283   21.81426177   1     471  C
   22.32574861   21.71286554   21.78858094   1     472  C
   26.57522203   21.38491972   21.74934250   1     473  C
   30.82425325   21.06073242   21.72180595   1     474  C
   35.07225821   20.73761249   21.72245439   1     475  C
   39.31904156   20.41271624   21.74934338   1     476  C
   43.56580181   20.08433146   21.78385407   1     477  C
   16.04798176   23.43593607   21.82572101   1     478  C
   20.29653146   23.10431170   21.81359370   1     479  C
   24.54552481   22.77435042   21.77527718   1     480  C
   28.79458012   22.44870330   21.73637884   1     481  C
   33.04299602   22.12583224   21.72118428   1     482  C
   37.29040701   21.80217505   21.73800184   1     483  C
   41.53717182   21.47577026   21.77527769   1     484  C
   45.78459508   21.14547407   21.80831441   1     485  C
   18.26792960   24.49650603   21.83230941   1     486  C
   22.51663330   24.16524371   21.80311838   1     487  C
   26.76516597   23.83721266   21.75861185   1     488  C
   31.01373965   23.51345465   21.72781915   1     489  C
   35.26153030   23.19079099   21.72916823   1     490  C
   39.50875557   22.86610523   21.76121947   1     491  C
   43.75616318   22.53739523   21.80311841   1     492  C
   20.48809471   25.55706337   21.82607475   1     493  C
   24.73622929   25.22691569   21.78385421   1     494  C
   28.98450489   24.90105778   21.74173467   1     495  C
   33.23288333   24.57840793   21.72614452   1     496  C
   37.48048397   24.25529404   21.74558528   1     497  C
   41.72778599   23.92889577   21.78858191   1     498  C
   45.97578244   23.59825454   21.82607429   1     499  C
   18.45953882   26.94944228   21.83875266   1     500  C
   22.70785809   26.61787948   21.80831419   1     501  C
   26.95580018   26.28971036   21.76197414   1     502  C
   31.20383383   25.96584493   21.73069550   1     503  C
   35.45201251   25.64345721   21.73337779   1     504  C
   39.69974145   25.31915872   21.76848295   1     505  C
   43.94741898   24.99052805   21.81359335   1     506  C
   48.19589784   24.65884663   21.83875256   1     507  C
    0.80381948    1.17115335   21.83875257   1     508  C
    5.05229836    0.83947192   21.81359334   1     509  C
    9.29997587    0.51084125   21.76848296   1     510  C
   13.54770482    0.18654280   21.73337768   1     511  C
   17.79588349   -0.13584489   21.73069553   1     512  C
   22.04391718   -0.45971033   21.76197416   1     513  C
   26.29185924   -0.78787945   21.80831420   1     514  C
   30.54017852   -1.11944230   21.83875267   1     515  C
    3.02393487    2.23174544   21.82607429   1     516  C
    7.27193134    1.90110418   21.78858191   1     517  C
   11.51923339    1.57470593   21.74558520   1     518  C
   15.76683400    1.25159204   21.72614454   1     519  C
   20.01521240    0.92894221   21.74173469   1     520  C
   24.26348801    0.60308428   21.78385422   1     521  C
   28.51162261    0.27293661   21.82607478   1     522  C
    5.24355415    3.29260473   21.80311840   1     523  C
    9.49096177    2.96389476   21.76121947   1     524  C
   13.73818705    2.63920899   21.72916824   1     525  C
   17.98597771    2.31654532   21.72781917   1     526  C
   22.23455139    1.99278736   21.75861185   1     527  C
   26.48308407    1.66475631   21.80311839   1     528  C
   30.73178776    1.33349400   21.83230945   1     529  C
    3.21512218    4.68452591   21.80831440   1     530  C
    7.46254551    4.35422973   21.77527769   1     531  C
   11.70931036    4.02782499   21.73800187   1     532  C
   15.95672136    3.70416779   21.72118427   1     533  C
   20.20513727    3.38129685   21.73637883   1     534  C
   24.45419252    3.05564963   21.77527717   1     535  C
   28.70318588    2.72568836   21.81359373   1     536  C
   32.95173555    2.39406395   21.82572104   1     537  C
    5.43391556    5.74566854   21.78385403   1     538  C
    9.68067584    5.41728377   21.74934338   1     539  C
   13.92745913    5.09238752   21.72245439   1     540  C
   18.17546416    4.76926775   21.72180594   1     541  C
   22.42449525    4.44508044   21.74934247   1     542  C
   26.67396871    4.11713447   21.78858094   1     543  C
   30.92315054    3.78628717   21.81426181   1     544  C
    7.65190086    6.80792596   21.75861100   1     545  C
   11.89827182    6.48130211   21.72843496   1     546  C
   16.14563138    6.15711877   21.71505921   1     547  C
   20.39423361    5.83356588   21.72843381   1     548  C
   24.64404909    5.50747595   21.76121843   1     549  C
   28.89404808    5.17776218   21.79332593   1     550  C
   33.14282032    4.84686879   21.80295077   1     551  C
    5.62329369    8.19926899   21.76197324   1     552  C
    9.86909278    7.87119781   21.73637923   1     553  C
   14.11556406    7.54557325   21.71619794   1     554  C
   18.36390339    7.22166503   21.71619600   1     555  C
   22.61348595    6.89665616   21.73800063   1     556  C
   26.86394933    6.56860346   21.76848217   1     557  C
   31.11369270    6.23866243   21.78803739   1     558  C
   35.36175561    5.90758104   21.78432639   1     559  C
    7.84025517    9.26185357   21.74173363   1     560  C
   12.08594639    8.93496396   21.72180682   1     561  C
   16.33323793    8.61000934   21.71246914   1     562  C
   20.58247456    8.28535175   21.72245363   1     563  C
   24.83298813    7.95860697   21.74558432   1     564  C
   29.08366858    7.62951568   21.76859673   1     565  C
   33.33283843    7.29967858   21.77548878   1     566  C
   10.05657098   10.32542292   21.72781925   1     567  C
   14.30277391    9.99892516   21.71505819   1     568  C
   18.55130768    9.67398141   21.71505759   1     569  C
   22.80162586    9.34802547   21.72916843   1     570  C
   27.05268081    9.01985437   21.74861632   1     571  C
   31.30284737    8.69080087   21.76140562   1     572  C
   35.55076937    8.36106316   21.75827342   1     573  C
    8.02778644   11.71624264   21.73069641   1     574  C
   12.27291578   11.38899964   21.72118446   1     575  C
   16.52024643   11.06278825   21.71619550   1     576  C
   20.77007736   10.73685420   21.72118417   1     577  C
   25.02093649   10.40939701   21.73337950   1     578  C
   29.27193479   10.08106042   21.74536710   1     579  C
   33.52125986    9.75241209   21.74931076   1     580  C
   37.76781667    9.42325613   21.74223461   1     581  C
   10.24386744   12.77973494   21.72614417   1     582  C
   14.48977942   12.45228425   21.72245384   1     583  C
   18.73830369   12.12579224   21.72180561   1     584  C
   22.98901310   11.79869256   21.72614507   1     585  C
   27.24029378   11.47067494   21.73281248   1     586  C
   31.49066558   11.14301100   21.73759657   1     587  C
   35.73867150   10.81478336   21.73712090   1     588  C
   12.45990096   13.84278704   21.72916765   1     589  C
   16.70720646   13.51515527   21.72843368   1     590  C
   20.95716546   13.18805051   21.72781955   1     591  C
   25.20822171   12.86022099   21.72768301   1     592  C
   29.45915066   12.53268641   21.72817900   1     593  C
   33.70855835   12.20543015   21.72897412   1     594  C
   37.95531118   11.87753533   21.72873136   1     595  C
   10.43107196   15.23408166   21.73337799   1     596  C
   14.67691726   14.90553828   21.73800059   1     597  C
   18.92548227   14.57752863   21.73637915   1     598  C
   23.17604286   14.24962178   21.73069693   1     599  C
   27.42729217   13.92182430   21.72443613   1     600  C
   31.67781479   13.59525746   21.72144990   1     601  C
   35.92581969   13.26844354   21.72363556   1     602  C
   40.17128978   12.94086179   21.72768257   1     603  C
   12.64749137   16.29670923   21.74558441   1     604  C
   16.89454032   15.96765791   21.74934218   1     605  C
   21.14424527   15.63922377   21.74173453   1     606  C
   25.39534295   15.31097941   21.72873288   1     607  C
   29.64619445   14.98431726   21.71846675   1     608  C
   33.89554815   14.65864651   21.71710040   1     609  C
   38.14237800   14.33183081   21.72443599   1     610  C
   14.86470163   17.35864820   21.76121836   1     611  C
   19.11325833   17.02930719   21.75861098   1     612  C
   23.36362250   16.70049409   21.74223536   1     613  C
   27.61465148   16.37311466   21.72363542   1     614  C
   31.86474065   16.04759044   21.71371647   1     615  C
   36.11278229   15.72220879   21.71846776   1     616  C
   40.35863813   15.39546144   21.73281197   1     617  C
   12.83578720   18.75057265   21.76848186   1     618  C
   17.08297329   18.42013905   21.77527620   1     619  C
   21.33249973   18.09046086   21.76197337   1     620  C
   25.58329361   17.76202203   21.73712096   1     621  C
   29.83373909   17.43628064   21.71710040   1     622  C
   34.08268659   17.11188976   21.71371811   1     623  C
   38.32947884   16.78604170   21.72817943   1     624  C
   42.57491635   16.45839579   21.74861593   1     625  C
   15.05381244   19.81177773   21.78858024   1     626  C
   19.30230780   19.48126661   21.78385339   1     627  C
   23.55225984   19.15160878   21.75827370   1     628  C
   27.80268707   18.82482596   21.72897442   1     629  C
   32.05200318   18.50053815   21.71371769   1     630  C
   36.29993095   18.17617341   21.72145212   1     631  C
   40.54625765   17.84972182   21.74536682   1     632  C
   17.27307562   20.87265465   21.80311765   1     633  C
   21.52198886   20.54204097   21.78432706   1     634  C
   25.77195916   20.21354033   21.74931122   1     635  C
   30.02168396   19.88858546   21.72145049   1     636  C
   34.27014386   19.56509278   21.71710211   1     637  C
   38.51721598   19.24022185   21.73759788   1     638  C
   42.76349011   18.91244861   21.76859731   1     639  C
   15.24422955   22.26485223   21.81359351   1     640  C
   19.49272990   21.93336850   21.80831459   1     641  C
   23.74203937   21.60308384   21.77548936   1     642  C
   27.99155041   21.27678549   21.73759706   1     643  C
   32.24045559   20.95349232   21.71846773   1     644  C
   36.48818546   20.62976204   21.72897502   1     645  C
   40.73479963   20.30367188   21.76140678   1     646  C
   44.98157948   19.97410753   21.79332609   1     647  C
   17.46415400   23.32533119   21.82607482   1     648  C
   21.71285497   22.99404691   21.80295145   1     649  C
   25.96178323   22.66554569   21.76140661   1     650  C
   30.21080119   22.34129041   21.72817890   1     651  C
   34.45895873   22.01846036   21.72363535   1     652  C
   38.70621135   21.69406568   21.74931214   1     653  C
   42.95299055   21.36592504   21.78803888   1     654  C
   19.68420593   24.38593359   21.82572101   1     655  C
   23.93274672   24.05542640   21.78803874   1     656  C
   28.18123788   23.72923834   21.74536782   1     657  C
   32.42976063   23.40636202   21.72443613   1     658  C
   36.67746493   23.08321463   21.73712167   1     659  C
   40.92455079   22.75725377   21.77549038   1     660  C
   45.17207878   22.42709536   21.81426155   1     661  C
   17.65571226   25.77830060   21.83875263   1     662  C
   21.90420229   25.44662771   21.81426156   1     663  C
   26.15227232   25.11805396   21.76859798   1     664  C
   30.40049990   24.79388501   21.73281183   1     665  C
   34.64877521   24.47150509   21.72873154   1     666  C
   38.89640005   24.14734706   21.75827454   1     667  C
   43.14375505   23.81909671   21.80295183   1     668  C
   47.39194011   23.48776806   21.83230942   1     669  C
   19.87570203   26.83874886   21.83230942   1     670  C
   24.12380475   26.50814453   21.79332603   1     671  C
   28.37183308   26.18177355   21.74861657   1     672  C
   32.61991948   25.85893689   21.72768202   1     673  C
   36.86799110   25.53626922   21.74223502   1     674  C
   41.11568451   25.21039600   21.78432787   1     675  C
   45.36348588   24.88001253   21.82572058   1     676  C

siesta: Program's energy decomposition (eV):
siesta: Ebs     =    -35875.949878
siesta: Eions   =    190741.314426
siesta: Ena     =     42118.845977
siesta: Ekin    =     76829.560767
siesta: Enl     =     -3897.830325
siesta: Eso     =         0.000000
siesta: Edftu   =         0.000000
siesta: DEna    =      4427.235002
siesta: DUscf   =       225.105373
siesta: DUext   =         0.000000
siesta: Ex      =    -36057.540959
siesta: Ec      =     -3428.820152
siesta: Exc     =    -39486.361112
siesta: EbV     =         0.000000
siesta: eta*DQ  =         0.000000
siesta: Emadel  =         0.000000
siesta: Emeta   =         0.000000
siesta: Emolmec =         0.000000
siesta: Ekinion =         0.000000
siesta: Eharris =   -110590.831200
siesta: Etot    =   -110590.829942
siesta: FreeEng =   -110590.829942

siesta: Final energy (eV):
siesta:  Band Struct. =  -35875.949878
siesta:       Kinetic =   76829.560767
siesta:       Hartree = 1790999.904571
siesta:         Edftu =       0.000000
siesta:       Eso     =       0.000000
siesta:    Ext. field =       0.000000
siesta:         Exch. =  -36057.540959
siesta:         Corr. =   -3428.820152
siesta:     Bulk bias =       0.000000
siesta:   Exch.-corr. =  -39486.361112
siesta:  Ion-electron =-3651535.175858
siesta:       Ion-ion = 1712667.312889
siesta:       Ekinion =       0.000000
siesta: D3 dispersion =     -66.071198
siesta:         Total = -110590.829942
siesta:         Fermi =      -3.954952

siesta: Stress tensor (static) (eV/Ang**3):
siesta:    -0.016247   -0.000000   -0.000000
siesta:    -0.000000   -0.016247    0.000000
siesta:    -0.000000    0.000000   -0.002553

siesta: Cell volume =      35428.073895 Ang**3

siesta: Pressure (static):
siesta:                Solid            Molecule  Units
siesta:           0.00012723          0.00012710  Ry/Bohr**3
siesta:           0.01168212          0.01166976  eV/Ang**3
siesta:          18.71681360         18.69701332  kBar
(Free)E+ p_basis*V_orbitals  =     -110183.441265
(Free)Eharris+ p_basis*V_orbitals  =     -110183.442523

siesta: Electric dipole (a.u.)  =    0.000000    0.000000    0.000102
siesta: Electric dipole (Debye) =    0.000000    0.000000    0.000260

cite: Please see "Graphene.bib" for an exhaustive BiBTeX file.
cite: Please clearly indicate Siesta version in published work: 5.0.0-alpha-112-g6e4f53aee-dirty
cite: This calculation has made use of the following articles
cite: which are encouraged to be cited in a published work.
        Primary SIESTA paper
          DOI: www.doi.org/10.1088/0953-8984/14/11/302
 
 
>> End of run:  30-NOV-2024  22:24:10
Job completed
