Siesta Version  : 5.0.0-alpha-112-g6e4f53aee-dirty
Architecture    : ----
Compiler version: Intel-2021.8.0.20221119
Compiler flags  : -O2 -ip -xHost -fp-model=strict -prec-div -prec-sqrt
PP flags        : ----
Libraries       : ----
Parallelisations: MPI
GEMM3M support
NetCDF support
NetCDF-4 support

Runtime information:
* Directory : /n/holylabs/LABS/kaxiras_lab/axzhu/projects/AM207-final-project/N_7/DFT-structures
* Running on 64 nodes in parallel.
>> Start of run:  30-NOV-2024  21:21:31

                           *********************** 
                           *  WELCOME TO SIESTA  * 
                           *********************** 

reinit: Reading from standard input
reinit: Dumping input in INPUT_TMP.19399
************************** Dump of input data file ****************************
#################################
#				#
#	Basic Information	#
#	      			#
#################################
SystemName      Graphene
SystemLabel     Graphene
#########################################
#					#
#	Structural Information		#
#					#
#########################################
%include structure.fdf
#################################
#                               #
#       DFT Parameters          #
#                               #
#################################
SolutionMethod diagon           # Method of solving system. Can change to OrderN, transiesta, etc.
#Diag.Algorithm MRRR
#NumberOfEigenStates -20 # this will include first 10 conduction bands
XC.Functional   GGA
XC.Authors      PBE
DFTD3 true
Spin non-polarized
# This is causing memory issues, keep it low for now.
Mesh.Cutoff 300 Ry              # Cut off plane waves with kinetic energy higher than this.
MaxSCFIterations 300            # Max number of iterations in the SCF loop.
DM.UseSaveDM true
MinSCFIterations       3
SCF.DM.Tolerance       0.0001
SCF.Mixer.Weight       0.10
SCF.Mixer.History      12
SCF.Mix.First          true
#################################
#                               #
#             Basis             #
#                               #
#################################
#PAO.BasisSize   DZP
PAO.Basis < basis.fdf
#########################################
#					#
#	k-points, Bands, DOS		#
#		  	 		#
#########################################
%block kgrid_Monkhorst_Pack
   1  0  0  0.0
   0  1  0  0.0
   0  0  1  0.0
%endblock kgrid_Monkhorst_Pack
#BandLinesScale ReciprocalLatticeVectors
#%block BandLines
#1   0.6666666667  0.3333333333  0.0000000000  K
#10  0.0000000000  0.0000000000  0.0000000000  Gamma
#10  0.5000000000  0.0000000000  0.0000000000  M
#10  0.6666666667  0.3333333333  0.0000000000  K
#%endblock BandLines
# Local density of states (LDOS)
# %block LocalDensityOfStates
# EF 8.40 8.50 eV
# %endblock LocalDensityOfStates
#########################################
#                                       #
#             Wavefunctions             #
#                                       #
#########################################
#WaveFuncKPointsScale ReciprocalLatticeVectors
#%block WaveFuncKPoints
#0.666 0.333 0.000 from 4375 to 4378 # K wavefuncs 4375 to 4378
#0.000 0.000 0.000 from 4375 to 4378 # Gamma wavefuncs 4375 to 4378
#0.500 0.000 0.000 from 4375 to 4378 # M wavefuncs 4375 to 4378
#%endblock WaveFuncKPoints
#WriteDenchar T
#########################################
#                                       #
#       Geometry Optimisation           #
#                                       #
#########################################
MD.UseSaveXV true
MD.TypeOfRun           CG                  # Conjugate Gradient
MD.NumCGsteps          200                 # Max number of steps
MD.MaxForceTol         0.01    eV/Ang      # 10 meV/Ang
MD.VariableCell        false               # Don't relax cell
MD.MaxCGDispl          0.5 Bohr            # Maximum displacement of any atom
# Fix COM in Z direction only
%block Geometry.Constraints
 center all 0.0 0.0 1.0
%endblock Geometry.Constraints
************************** End of input data file *****************************

reinit: -----------------------------------------------------------------------
reinit: System Name: Graphene
reinit: -----------------------------------------------------------------------
reinit: System Label: Graphene
reinit: -----------------------------------------------------------------------

initatom: Reading input for the pseudopotentials and atomic orbitals ----------
Species number:   1 Atomic number:    6 Label: C
 

---- Processing specs for species: C
Ground state valence configuration:   2s02  2p02
Reading pseudopotential information in PSML from:
  C.psml
PSML file version: 1.1
Using libxc ids:  101 130
GGA--PBE XC_GGA_X_PBE--XC_GGA_C_PBE pb
 Using ATOM defaults for log grid...
PSML uuid: 297821e0-be41-11e7-6802-e1ff7dfff095

---- Pseudopotential check for C 

Pseudized shells:
2s( 2.00) rc: 1.20
2p( 2.00) rc: 1.26
Valence configuration for ps generation: 2s:2p: Total charge:   4.000000
For C, standard SIESTA heuristics set lmxkb to 3
 (one more than the basis l, including polarization orbitals).
Use PS.lmax or PS.KBprojectors blocks to override.
C pseudopotential only contains V_ls up to l=1 -- lmxkb reset.

<basis_specs>
===============================================================================
C                    Z=   6    Mass=  12.011        Charge= 0.99941    
Lmxo=2 Lmxkb= 1    BasisType=split      Semic=F
L=0  Nsemic=0  Cnfigmx=2
          i=1  nzeta=1  polorb=0  (2s)
            splnorm:   0.15000    
               vcte:    132.57    
               rinn:    4.5256    
               qcoe:    0.0000    
               qyuk:    0.0000    
               qwid:   0.10000E-01
                rcs:    6.0009    
            lambdas:    1.0000    
L=1  Nsemic=0  Cnfigmx=2
          i=1  nzeta=1  polorb=0  (2p)
            splnorm:   0.15000    
               vcte:    6.0639    
               rinn:    6.0646    
               qcoe:    0.0000    
               qyuk:    0.0000    
               qwid:   0.10000E-01
                rcs:    6.7108    
            lambdas:    1.0000    
L=2  Nsemic=0  Cnfigmx=3
          i=1  nzeta=1  polorb=0  (3d)
            splnorm:   0.15000    
               vcte:    14.478    
               rinn:    4.3208    
               qcoe:    0.0000    
               qyuk:    0.0000    
               qwid:   0.10000E-01
                rcs:    6.2254    
            lambdas:    1.0000    
-------------------------------------------------------------------------------
L=0  Nkbl=1  erefs: 0.17977+309
L=1  Nkbl=1  erefs: 0.17977+309
===============================================================================
</basis_specs>

atom: Called for C                     (Z =   6)
NOTE: C pseudopotential has channels up to l= 1
NOTE: PAOs with higher l will be generated with V_local

read_vps: Pseudopotential generation method:
read_vps: ONCVPSP-3.Hamann's oncvpsp                        
Valence charge in pseudo generation:    4.00000

read_vps: Pseudopotential includes a core correction:
read_vps: Pseudo-core for xc-correction

xc_check: Exchange-correlation functional:
xc_check: GGA Perdew, Burke & Ernzerhof 1996
Got Vlocal (oncv-fit) from psml data
Choosing vlocal chloc cutoff:  4.139772
qtot up to nchloc:    3.99998844
atom: Maximum radius for chlocal:    4.13977
atom: Maximum radius for r*vlocal+2*Zval:    4.13977
Reading KB projs from C psml data
Using scalar-relativistic projectors in PSML file

PSML: Kleinman-Bylander projectors: 
   l= 0   rc=  1.231096   Ekb= 12.963096
   l= 0   rc=  1.231096   Ekb=  0.771007
   l= 1   rc=  1.294237   Ekb= -8.399923
   l= 1   rc=  1.294237   Ekb= -1.755033

PSML: Total number of  Kleinman-Bylander projectors:   8
atom: -------------------------------------------------------------------------

atom: SANKEY-TYPE ORBITALS:

atom: basis set generated (by rescaling the valence charge)
atom: for a cation of charge   0.9994

SPLIT: Orbitals with angular momentum L= 0

SPLIT: Basis orbitals for state 2s

   izeta = 1
                 lambda =    1.000000
                     rc =    6.099293
                 energy =   -2.079355
                kinetic =    1.090115
    potential(screened) =   -3.169470
       potential(ionic) =   -5.727963

SPLIT: Orbitals with angular momentum L= 1

SPLIT: Basis orbitals for state 2p

   izeta = 1
                 lambda =    1.000000
                     rc =    6.740804
                 energy =   -1.441657
                kinetic =    3.222058
    potential(screened) =   -4.663715
       potential(ionic) =   -7.206130
*Note: V_local used for l= 2

** Using vlocal for PAOs with L= 2

SPLIT: Orbitals with angular momentum L= 2

SPLIT: Basis orbitals for state 3d

   izeta = 1
                 lambda =    1.000000
                     rc =    6.253707
                 energy =    0.017329
                kinetic =    1.197074
    potential(screened) =   -1.179745
       potential(ionic) =   -2.838380
atom: Total number of Sankey-type orbitals:  9

atm_pop: Valence configuration (for local Pseudopot. screening):
 2s( 2.00)                                                            
 2p( 2.00)                                                            
 3d( 0.00)                                                            
Vna: chval, zval:    4.00000   4.00000

Vna:  Cut-off radius for the neutral-atom potential:   6.740804
comcore: Pseudo-core radius Rcore=  1.682861

atom: _________________________________________________________________________

prinput: Basis input 

PAO.BasisType split     

%block ChemicalSpeciesLabel
    1    6 C                       # Species index, atomic number, species label
%endblock ChemicalSpeciesLabel

%block PAO.Basis                 # Define Basis set
# WARNING: This information might be incomplete!
C                     3   0.999            # Label, l-shells, ionic net charge
 n=2   0   1                         # n, l, Nzeta 
   6.099   
   1.000   
 n=2   1   1                         # n, l, Nzeta 
   6.741   
   1.000   
 n=3   2   1                         # n, l, Nzeta 
   6.254   
   1.000   
%endblock PAO.Basis

prinput: ----------------------------------------------------------------------

Dumping basis to NetCDF file C.ion.nc
coor:   Atomic-coordinates input format  =     Cartesian coordinates
coor:                                          (in Angstroms)

siesta: WARNING: XV file not found

siesta: Atomic coordinates (Bohr) and species
siesta:      2.68394   0.00000  34.62923  1        1
siesta:     10.73577   0.00000  34.62923  1        2
siesta:     18.78760   0.00000  34.62923  1        3
siesta:     26.83943   0.00000  34.62923  1        4
siesta:     34.89126   0.00000  34.62923  1        5
siesta:     42.94309   0.00000  34.62923  1        6
siesta:     50.99492   0.00000  34.62923  1        7
siesta:      6.70986   2.32436  34.62923  1        8
siesta:     14.76169   2.32436  34.62923  1        9
siesta:     22.81352   2.32436  34.62923  1       10
siesta:     30.86535   2.32436  34.62923  1       11
siesta:     38.91718   2.32436  34.62923  1       12
siesta:     46.96901   2.32436  34.62923  1       13
siesta:     55.02084   2.32436  34.62923  1       14
siesta:     10.73577   4.64873  34.62923  1       15
siesta:     18.78760   4.64873  34.62923  1       16
siesta:     26.83943   4.64873  34.62923  1       17
siesta:     34.89126   4.64873  34.62923  1       18
siesta:     42.94309   4.64873  34.62923  1       19
siesta:     50.99492   4.64873  34.62923  1       20
siesta:      6.70986   6.97309  34.62923  1       21
siesta:     14.76169   6.97309  34.62923  1       22
siesta:     22.81352   6.97309  34.62923  1       23
siesta:     30.86535   6.97309  34.62923  1       24
siesta:     38.91718   6.97309  34.62923  1       25
siesta:     46.96901   6.97309  34.62923  1       26
siesta:     55.02084   6.97309  34.62923  1       27
siesta:     10.73577   9.29745  34.62923  1       28
siesta:     18.78760   9.29745  34.62923  1       29
siesta:     26.83943   9.29745  34.62923  1       30
siesta:     34.89126   9.29745  34.62923  1       31
siesta:     42.94309   9.29745  34.62923  1       32
siesta:     50.99492   9.29745  34.62923  1       33
siesta:     59.04675   9.29745  34.62923  1       34
siesta:     14.76169  11.62182  34.62923  1       35
siesta:     22.81352  11.62182  34.62923  1       36
siesta:     30.86535  11.62182  34.62923  1       37
siesta:     38.91718  11.62182  34.62923  1       38
siesta:     46.96901  11.62182  34.62923  1       39
siesta:     55.02084  11.62182  34.62923  1       40
siesta:     10.73577  13.94618  34.62923  1       41
siesta:     18.78760  13.94618  34.62923  1       42
siesta:     26.83943  13.94618  34.62923  1       43
siesta:     34.89126  13.94618  34.62923  1       44
siesta:     42.94309  13.94618  34.62923  1       45
siesta:     50.99492  13.94618  34.62923  1       46
siesta:     59.04675  13.94618  34.62923  1       47
siesta:     14.76169  16.27054  34.62923  1       48
siesta:     22.81352  16.27054  34.62923  1       49
siesta:     30.86535  16.27054  34.62923  1       50
siesta:     38.91718  16.27054  34.62923  1       51
siesta:     46.96901  16.27054  34.62923  1       52
siesta:     55.02084  16.27054  34.62923  1       53
siesta:     63.07267  16.27054  34.62923  1       54
siesta:     18.78760  18.59491  34.62923  1       55
siesta:     26.83943  18.59491  34.62923  1       56
siesta:     34.89126  18.59491  34.62923  1       57
siesta:     42.94309  18.59491  34.62923  1       58
siesta:     50.99492  18.59491  34.62923  1       59
siesta:     59.04675  18.59491  34.62923  1       60
siesta:     14.76169  20.91927  34.62923  1       61
siesta:     22.81352  20.91927  34.62923  1       62
siesta:     30.86535  20.91927  34.62923  1       63
siesta:     38.91718  20.91927  34.62923  1       64
siesta:     46.96901  20.91927  34.62923  1       65
siesta:     55.02084  20.91927  34.62923  1       66
siesta:     63.07267  20.91927  34.62923  1       67
siesta:     18.78760  23.24363  34.62923  1       68
siesta:     26.83943  23.24363  34.62923  1       69
siesta:     34.89126  23.24363  34.62923  1       70
siesta:     42.94309  23.24363  34.62923  1       71
siesta:     50.99492  23.24363  34.62923  1       72
siesta:     59.04675  23.24363  34.62923  1       73
siesta:     67.09858  23.24363  34.62923  1       74
siesta:     22.81352  25.56799  34.62923  1       75
siesta:     30.86535  25.56799  34.62923  1       76
siesta:     38.91718  25.56799  34.62923  1       77
siesta:     46.96901  25.56799  34.62923  1       78
siesta:     55.02084  25.56799  34.62923  1       79
siesta:     63.07267  25.56799  34.62923  1       80
siesta:     18.78760  27.89236  34.62923  1       81
siesta:     26.83943  27.89236  34.62923  1       82
siesta:     34.89126  27.89236  34.62923  1       83
siesta:     42.94309  27.89236  34.62923  1       84
siesta:     50.99492  27.89236  34.62923  1       85
siesta:     59.04675  27.89236  34.62923  1       86
siesta:     67.09858  27.89236  34.62923  1       87
siesta:     22.81352  30.21672  34.62923  1       88
siesta:     30.86535  30.21672  34.62923  1       89
siesta:     38.91718  30.21672  34.62923  1       90
siesta:     46.96901  30.21672  34.62923  1       91
siesta:     55.02084  30.21672  34.62923  1       92
siesta:     63.07267  30.21672  34.62923  1       93
siesta:     71.12450  30.21672  34.62923  1       94
siesta:     26.83943  32.54108  34.62923  1       95
siesta:     34.89126  32.54108  34.62923  1       96
siesta:     42.94309  32.54108  34.62923  1       97
siesta:     50.99492  32.54108  34.62923  1       98
siesta:     59.04675  32.54108  34.62923  1       99
siesta:     67.09858  32.54108  34.62923  1      100
siesta:     22.81352  34.86545  34.62923  1      101
siesta:     30.86535  34.86545  34.62923  1      102
siesta:     38.91718  34.86545  34.62923  1      103
siesta:     46.96901  34.86545  34.62923  1      104
siesta:     55.02084  34.86545  34.62923  1      105
siesta:     63.07267  34.86545  34.62923  1      106
siesta:     71.12450  34.86545  34.62923  1      107
siesta:     26.83943  37.18981  34.62923  1      108
siesta:     34.89126  37.18981  34.62923  1      109
siesta:     42.94309  37.18981  34.62923  1      110
siesta:     50.99492  37.18981  34.62923  1      111
siesta:     59.04675  37.18981  34.62923  1      112
siesta:     67.09858  37.18981  34.62923  1      113
siesta:     75.15041  37.18981  34.62923  1      114
siesta:     30.86535  39.51417  34.62923  1      115
siesta:     38.91718  39.51417  34.62923  1      116
siesta:     46.96901  39.51417  34.62923  1      117
siesta:     55.02084  39.51417  34.62923  1      118
siesta:     63.07267  39.51417  34.62923  1      119
siesta:     71.12450  39.51417  34.62923  1      120
siesta:     26.83943  41.83854  34.62923  1      121
siesta:     34.89126  41.83854  34.62923  1      122
siesta:     42.94309  41.83854  34.62923  1      123
siesta:     50.99492  41.83854  34.62923  1      124
siesta:     59.04675  41.83854  34.62923  1      125
siesta:     67.09858  41.83854  34.62923  1      126
siesta:     75.15041  41.83854  34.62923  1      127
siesta:      5.36789   0.00000  34.62923  1      128
siesta:     13.41972   0.00000  34.62923  1      129
siesta:     21.47155   0.00000  34.62923  1      130
siesta:     29.52338   0.00000  34.62923  1      131
siesta:     37.57521   0.00000  34.62923  1      132
siesta:     45.62704   0.00000  34.62923  1      133
siesta:     53.67887   0.00000  34.62923  1      134
siesta:      9.39380   2.32436  34.62923  1      135
siesta:     17.44563   2.32436  34.62923  1      136
siesta:     25.49746   2.32436  34.62923  1      137
siesta:     33.54929   2.32436  34.62923  1      138
siesta:     41.60112   2.32436  34.62923  1      139
siesta:     49.65295   2.32436  34.62923  1      140
siesta:      5.36789   4.64873  34.62923  1      141
siesta:     13.41972   4.64873  34.62923  1      142
siesta:     21.47155   4.64873  34.62923  1      143
siesta:     29.52338   4.64873  34.62923  1      144
siesta:     37.57521   4.64873  34.62923  1      145
siesta:     45.62704   4.64873  34.62923  1      146
siesta:     53.67887   4.64873  34.62923  1      147
siesta:      9.39380   6.97309  34.62923  1      148
siesta:     17.44563   6.97309  34.62923  1      149
siesta:     25.49746   6.97309  34.62923  1      150
siesta:     33.54929   6.97309  34.62923  1      151
siesta:     41.60112   6.97309  34.62923  1      152
siesta:     49.65295   6.97309  34.62923  1      153
siesta:     57.70478   6.97309  34.62923  1      154
siesta:     13.41972   9.29745  34.62923  1      155
siesta:     21.47155   9.29745  34.62923  1      156
siesta:     29.52338   9.29745  34.62923  1      157
siesta:     37.57521   9.29745  34.62923  1      158
siesta:     45.62704   9.29745  34.62923  1      159
siesta:     53.67887   9.29745  34.62923  1      160
siesta:      9.39380  11.62182  34.62923  1      161
siesta:     17.44563  11.62182  34.62923  1      162
siesta:     25.49746  11.62182  34.62923  1      163
siesta:     33.54929  11.62182  34.62923  1      164
siesta:     41.60112  11.62182  34.62923  1      165
siesta:     49.65295  11.62182  34.62923  1      166
siesta:     57.70478  11.62182  34.62923  1      167
siesta:     13.41972  13.94618  34.62923  1      168
siesta:     21.47155  13.94618  34.62923  1      169
siesta:     29.52338  13.94618  34.62923  1      170
siesta:     37.57521  13.94618  34.62923  1      171
siesta:     45.62704  13.94618  34.62923  1      172
siesta:     53.67887  13.94618  34.62923  1      173
siesta:     61.73070  13.94618  34.62923  1      174
siesta:     17.44563  16.27054  34.62923  1      175
siesta:     25.49746  16.27054  34.62923  1      176
siesta:     33.54929  16.27054  34.62923  1      177
siesta:     41.60112  16.27054  34.62923  1      178
siesta:     49.65295  16.27054  34.62923  1      179
siesta:     57.70478  16.27054  34.62923  1      180
siesta:     13.41972  18.59491  34.62923  1      181
siesta:     21.47155  18.59491  34.62923  1      182
siesta:     29.52338  18.59491  34.62923  1      183
siesta:     37.57521  18.59491  34.62923  1      184
siesta:     45.62704  18.59491  34.62923  1      185
siesta:     53.67887  18.59491  34.62923  1      186
siesta:     61.73070  18.59491  34.62923  1      187
siesta:     17.44563  20.91927  34.62923  1      188
siesta:     25.49746  20.91927  34.62923  1      189
siesta:     33.54929  20.91927  34.62923  1      190
siesta:     41.60112  20.91927  34.62923  1      191
siesta:     49.65295  20.91927  34.62923  1      192
siesta:     57.70478  20.91927  34.62923  1      193
siesta:     65.75661  20.91927  34.62923  1      194
siesta:     21.47155  23.24363  34.62923  1      195
siesta:     29.52338  23.24363  34.62923  1      196
siesta:     37.57521  23.24363  34.62923  1      197
siesta:     45.62704  23.24363  34.62923  1      198
siesta:     53.67887  23.24363  34.62923  1      199
siesta:     61.73070  23.24363  34.62923  1      200
siesta:     17.44563  25.56799  34.62923  1      201
siesta:     25.49746  25.56799  34.62923  1      202
siesta:     33.54929  25.56799  34.62923  1      203
siesta:     41.60112  25.56799  34.62923  1      204
siesta:     49.65295  25.56799  34.62923  1      205
siesta:     57.70478  25.56799  34.62923  1      206
siesta:     65.75661  25.56799  34.62923  1      207
siesta:     21.47155  27.89236  34.62923  1      208
siesta:     29.52338  27.89236  34.62923  1      209
siesta:     37.57521  27.89236  34.62923  1      210
siesta:     45.62704  27.89236  34.62923  1      211
siesta:     53.67887  27.89236  34.62923  1      212
siesta:     61.73070  27.89236  34.62923  1      213
siesta:     69.78253  27.89236  34.62923  1      214
siesta:     25.49746  30.21672  34.62923  1      215
siesta:     33.54929  30.21672  34.62923  1      216
siesta:     41.60112  30.21672  34.62923  1      217
siesta:     49.65295  30.21672  34.62923  1      218
siesta:     57.70478  30.21672  34.62923  1      219
siesta:     65.75661  30.21672  34.62923  1      220
siesta:     21.47155  32.54108  34.62923  1      221
siesta:     29.52338  32.54108  34.62923  1      222
siesta:     37.57521  32.54108  34.62923  1      223
siesta:     45.62704  32.54108  34.62923  1      224
siesta:     53.67887  32.54108  34.62923  1      225
siesta:     61.73070  32.54108  34.62923  1      226
siesta:     69.78253  32.54108  34.62923  1      227
siesta:     25.49746  34.86545  34.62923  1      228
siesta:     33.54929  34.86545  34.62923  1      229
siesta:     41.60112  34.86545  34.62923  1      230
siesta:     49.65295  34.86545  34.62923  1      231
siesta:     57.70478  34.86545  34.62923  1      232
siesta:     65.75661  34.86545  34.62923  1      233
siesta:     73.80844  34.86545  34.62923  1      234
siesta:     29.52338  37.18981  34.62923  1      235
siesta:     37.57521  37.18981  34.62923  1      236
siesta:     45.62704  37.18981  34.62923  1      237
siesta:     53.67887  37.18981  34.62923  1      238
siesta:     61.73070  37.18981  34.62923  1      239
siesta:     69.78253  37.18981  34.62923  1      240
siesta:     25.49746  39.51417  34.62923  1      241
siesta:     33.54929  39.51417  34.62923  1      242
siesta:     41.60112  39.51417  34.62923  1      243
siesta:     49.65295  39.51417  34.62923  1      244
siesta:     57.70478  39.51417  34.62923  1      245
siesta:     65.75661  39.51417  34.62923  1      246
siesta:     73.80844  39.51417  34.62923  1      247
siesta:     29.52338  41.83854  34.62923  1      248
siesta:     37.57521  41.83854  34.62923  1      249
siesta:     45.62704  41.83854  34.62923  1      250
siesta:     53.67887  41.83854  34.62923  1      251
siesta:     61.73070  41.83854  34.62923  1      252
siesta:     69.78253  41.83854  34.62923  1      253
siesta:     77.83436  41.83854  34.62923  1      254
siesta:      6.88949   1.72039  40.95981  1      255
siesta:     14.90962   1.00661  40.95981  1      256
siesta:     22.92975   0.29283  40.95981  1      257
siesta:     30.94988  -0.42095  40.95981  1      258
siesta:     38.97001  -1.13473  40.95981  1      259
siesta:     46.99014  -1.84851  40.95981  1      260
siesta:      3.08548   4.39250  40.95981  1      261
siesta:     11.10561   3.67872  40.95981  1      262
siesta:     19.12574   2.96494  40.95981  1      263
siesta:     27.14587   2.25115  40.95981  1      264
siesta:     35.16600   1.53737  40.95981  1      265
siesta:     43.18613   0.82359  40.95981  1      266
siesta:     51.20626   0.10981  40.95981  1      267
siesta:      7.30159   6.35082  40.95981  1      268
siesta:     15.32172   5.63704  40.95981  1      269
siesta:     23.34185   4.92326  40.95981  1      270
siesta:     31.36198   4.20948  40.95981  1      271
siesta:     39.38211   3.49570  40.95981  1      272
siesta:     47.40224   2.78191  40.95981  1      273
siesta:     11.51771   8.30914  40.95981  1      274
siesta:     19.53784   7.59536  40.95981  1      275
siesta:     27.55797   6.88158  40.95981  1      276
siesta:     35.57810   6.16780  40.95981  1      277
siesta:     43.59823   5.45402  40.95981  1      278
siesta:     51.61836   4.74024  40.95981  1      279
siesta:      7.71370  10.98124  40.95981  1      280
siesta:     15.73383  10.26746  40.95981  1      281
siesta:     23.75396   9.55368  40.95981  1      282
siesta:     31.77409   8.83990  40.95981  1      283
siesta:     39.79422   8.12612  40.95981  1      284
siesta:     47.81435   7.41234  40.95981  1      285
siesta:     55.83448   6.69856  40.95981  1      286
siesta:     11.92981  12.93956  40.95981  1      287
siesta:     19.94994  12.22578  40.95981  1      288
siesta:     27.97007  11.51200  40.95981  1      289
siesta:     35.99020  10.79822  40.95981  1      290
siesta:     44.01033  10.08444  40.95981  1      291
siesta:     52.03046   9.37066  40.95981  1      292
siesta:     16.14593  14.89789  40.95981  1      293
siesta:     24.16606  14.18411  40.95981  1      294
siesta:     32.18619  13.47032  40.95981  1      295
siesta:     40.20632  12.75654  40.95981  1      296
siesta:     48.22645  12.04276  40.95981  1      297
siesta:     56.24658  11.32898  40.95981  1      298
siesta:     12.34191  17.56999  40.95981  1      299
siesta:     20.36204  16.85621  40.95981  1      300
siesta:     28.38217  16.14243  40.95981  1      301
siesta:     36.40230  15.42865  40.95981  1      302
siesta:     44.42243  14.71487  40.95981  1      303
siesta:     52.44256  14.00109  40.95981  1      304
siesta:     60.46269  13.28730  40.95981  1      305
siesta:     16.55803  19.52831  40.95981  1      306
siesta:     24.57816  18.81453  40.95981  1      307
siesta:     32.59829  18.10075  40.95981  1      308
siesta:     40.61842  17.38697  40.95981  1      309
siesta:     48.63855  16.67319  40.95981  1      310
siesta:     56.65868  15.95941  40.95981  1      311
siesta:     20.77414  21.48663  40.95981  1      312
siesta:     28.79427  20.77285  40.95981  1      313
siesta:     36.81440  20.05907  40.95981  1      314
siesta:     44.83453  19.34529  40.95981  1      315
siesta:     52.85466  18.63151  40.95981  1      316
siesta:     60.87479  17.91773  40.95981  1      317
siesta:     16.97013  24.15873  40.95981  1      318
siesta:     24.99026  23.44495  40.95981  1      319
siesta:     33.01039  22.73117  40.95981  1      320
siesta:     41.03052  22.01739  40.95981  1      321
siesta:     49.05065  21.30361  40.95981  1      322
siesta:     57.07078  20.58983  40.95981  1      323
siesta:     65.09091  19.87605  40.95981  1      324
siesta:     21.18625  26.11706  40.95981  1      325
siesta:     29.20638  25.40328  40.95981  1      326
siesta:     37.22651  24.68950  40.95981  1      327
siesta:     45.24664  23.97571  40.95981  1      328
siesta:     53.26677  23.26193  40.95981  1      329
siesta:     61.28690  22.54815  40.95981  1      330
siesta:     25.40236  28.07538  40.95981  1      331
siesta:     33.42249  27.36160  40.95981  1      332
siesta:     41.44262  26.64782  40.95981  1      333
siesta:     49.46275  25.93404  40.95981  1      334
siesta:     57.48288  25.22026  40.95981  1      335
siesta:     65.50301  24.50647  40.95981  1      336
siesta:     21.59835  30.74748  40.95981  1      337
siesta:     29.61848  30.03370  40.95981  1      338
siesta:     37.63861  29.31992  40.95981  1      339
siesta:     45.65874  28.60614  40.95981  1      340
siesta:     53.67887  27.89236  40.95981  1      341
siesta:     61.69900  27.17858  40.95981  1      342
siesta:     69.71913  26.46480  40.95981  1      343
siesta:     25.81446  32.70580  40.95981  1      344
siesta:     33.83459  31.99202  40.95981  1      345
siesta:     41.85472  31.27824  40.95981  1      346
siesta:     49.87485  30.56446  40.95981  1      347
siesta:     57.89498  29.85068  40.95981  1      348
siesta:     65.91511  29.13690  40.95981  1      349
siesta:     30.03058  34.66412  40.95981  1      350
siesta:     38.05071  33.95034  40.95981  1      351
siesta:     46.07084  33.23656  40.95981  1      352
siesta:     54.09097  32.52278  40.95981  1      353
siesta:     62.11110  31.80900  40.95981  1      354
siesta:     70.13123  31.09522  40.95981  1      355
siesta:     26.22656  37.33623  40.95981  1      356
siesta:     34.24669  36.62245  40.95981  1      357
siesta:     42.26682  35.90867  40.95981  1      358
siesta:     50.28695  35.19488  40.95981  1      359
siesta:     58.30708  34.48110  40.95981  1      360
siesta:     66.32721  33.76732  40.95981  1      361
siesta:     74.34734  33.05354  40.95981  1      362
siesta:     30.44268  39.29455  40.95981  1      363
siesta:     38.46281  38.58077  40.95981  1      364
siesta:     46.48294  37.86699  40.95981  1      365
siesta:     54.50307  37.15321  40.95981  1      366
siesta:     62.52320  36.43943  40.95981  1      367
siesta:     70.54333  35.72564  40.95981  1      368
siesta:     34.65880  41.25287  40.95981  1      369
siesta:     42.67893  40.53909  40.95981  1      370
siesta:     50.69906  39.82531  40.95981  1      371
siesta:     58.71919  39.11153  40.95981  1      372
siesta:     66.73932  38.39775  40.95981  1      373
siesta:     74.75945  37.68397  40.95981  1      374
siesta:     30.85478  43.92497  40.95981  1      375
siesta:     38.87491  43.21119  40.95981  1      376
siesta:     46.89504  42.49741  40.95981  1      377
siesta:     54.91517  41.78363  40.95981  1      378
siesta:     62.93530  41.06985  40.95981  1      379
siesta:     70.95543  40.35607  40.95981  1      380
siesta:     78.97556  39.64229  40.95981  1      381
siesta:      1.54274   2.19625  40.95981  1      382
siesta:      9.56287   1.48247  40.95981  1      383
siesta:     17.58300   0.76869  40.95981  1      384
siesta:     25.60313   0.05491  40.95981  1      385
siesta:     33.62326  -0.65887  40.95981  1      386
siesta:     41.64339  -1.37266  40.95981  1      387
siesta:     49.66352  -2.08644  40.95981  1      388
siesta:      5.75885   4.15457  40.95981  1      389
siesta:     13.77898   3.44079  40.95981  1      390
siesta:     21.79911   2.72701  40.95981  1      391
siesta:     29.81924   2.01323  40.95981  1      392
siesta:     37.83937   1.29945  40.95981  1      393
siesta:     45.85950   0.58567  40.95981  1      394
siesta:      9.97497   6.11289  40.95981  1      395
siesta:     17.99510   5.39911  40.95981  1      396
siesta:     26.01523   4.68533  40.95981  1      397
siesta:     34.03536   3.97155  40.95981  1      398
siesta:     42.05549   3.25777  40.95981  1      399
siesta:     50.07562   2.54399  40.95981  1      400
siesta:      6.17096   8.78499  40.95981  1      401
siesta:     14.19109   8.07121  40.95981  1      402
siesta:     22.21122   7.35743  40.95981  1      403
siesta:     30.23135   6.64365  40.95981  1      404
siesta:     38.25148   5.92987  40.95981  1      405
siesta:     46.27161   5.21609  40.95981  1      406
siesta:     54.29174   4.50231  40.95981  1      407
siesta:     10.38707  10.74332  40.95981  1      408
siesta:     18.40720  10.02954  40.95981  1      409
siesta:     26.42733   9.31575  40.95981  1      410
siesta:     34.44746   8.60197  40.95981  1      411
siesta:     42.46759   7.88819  40.95981  1      412
siesta:     50.48772   7.17441  40.95981  1      413
siesta:     14.60319  12.70164  40.95981  1      414
siesta:     22.62332  11.98786  40.95981  1      415
siesta:     30.64345  11.27408  40.95981  1      416
siesta:     38.66358  10.56030  40.95981  1      417
siesta:     46.68371   9.84651  40.95981  1      418
siesta:     54.70384   9.13273  40.95981  1      419
siesta:     10.79917  15.37374  40.95981  1      420
siesta:     18.81930  14.65996  40.95981  1      421
siesta:     26.83943  13.94618  40.95981  1      422
siesta:     34.85956  13.23240  40.95981  1      423
siesta:     42.87969  12.51862  40.95981  1      424
siesta:     50.89982  11.80484  40.95981  1      425
siesta:     58.91995  11.09106  40.95981  1      426
siesta:     15.01529  17.33206  40.95981  1      427
siesta:     23.03542  16.61828  40.95981  1      428
siesta:     31.05555  15.90450  40.95981  1      429
siesta:     39.07568  15.19072  40.95981  1      430
siesta:     47.09581  14.47694  40.95981  1      431
siesta:     55.11594  13.76316  40.95981  1      432
siesta:     19.23141  19.29038  40.95981  1      433
siesta:     27.25154  18.57660  40.95981  1      434
siesta:     35.27167  17.86282  40.95981  1      435
siesta:     43.29180  17.14904  40.95981  1      436
siesta:     51.31193  16.43526  40.95981  1      437
siesta:     59.33206  15.72148  40.95981  1      438
siesta:     15.42739  21.96249  40.95981  1      439
siesta:     23.44752  21.24871  40.95981  1      440
siesta:     31.46765  20.53492  40.95981  1      441
siesta:     39.48778  19.82114  40.95981  1      442
siesta:     47.50791  19.10736  40.95981  1      443
siesta:     55.52804  18.39358  40.95981  1      444
siesta:     63.54817  17.67980  40.95981  1      445
siesta:     19.64351  23.92081  40.95981  1      446
siesta:     27.66364  23.20703  40.95981  1      447
siesta:     35.68377  22.49325  40.95981  1      448
siesta:     43.70390  21.77947  40.95981  1      449
siesta:     51.72403  21.06568  40.95981  1      450
siesta:     59.74416  20.35190  40.95981  1      451
siesta:     23.85962  25.87913  40.95981  1      452
siesta:     31.87975  25.16535  40.95981  1      453
siesta:     39.89988  24.45157  40.95981  1      454
siesta:     47.92001  23.73779  40.95981  1      455
siesta:     55.94014  23.02401  40.95981  1      456
siesta:     63.96027  22.31023  40.95981  1      457
siesta:     20.05561  28.55123  40.95981  1      458
siesta:     28.07574  27.83745  40.95981  1      459
siesta:     36.09587  27.12367  40.95981  1      460
siesta:     44.11600  26.40989  40.95981  1      461
siesta:     52.13613  25.69611  40.95981  1      462
siesta:     60.15626  24.98233  40.95981  1      463
siesta:     68.17639  24.26855  40.95981  1      464
siesta:     24.27172  30.50955  40.95981  1      465
siesta:     32.29185  29.79577  40.95981  1      466
siesta:     40.31198  29.08199  40.95981  1      467
siesta:     48.33211  28.36821  40.95981  1      468
siesta:     56.35224  27.65443  40.95981  1      469
siesta:     64.37237  26.94065  40.95981  1      470
siesta:     28.48784  32.46788  40.95981  1      471
siesta:     36.50797  31.75409  40.95981  1      472
siesta:     44.52810  31.04031  40.95981  1      473
siesta:     52.54823  30.32653  40.95981  1      474
siesta:     60.56836  29.61275  40.95981  1      475
siesta:     68.58849  28.89897  40.95981  1      476
siesta:     24.68383  35.13998  40.95981  1      477
siesta:     32.70396  34.42620  40.95981  1      478
siesta:     40.72409  33.71242  40.95981  1      479
siesta:     48.74422  32.99864  40.95981  1      480
siesta:     56.76435  32.28485  40.95981  1      481
siesta:     64.78448  31.57107  40.95981  1      482
siesta:     72.80461  30.85729  40.95981  1      483
siesta:     28.89994  37.09830  40.95981  1      484
siesta:     36.92007  36.38452  40.95981  1      485
siesta:     44.94020  35.67074  40.95981  1      486
siesta:     52.96033  34.95696  40.95981  1      487
siesta:     60.98046  34.24318  40.95981  1      488
siesta:     69.00059  33.52940  40.95981  1      489
siesta:     33.11606  39.05662  40.95981  1      490
siesta:     41.13619  38.34284  40.95981  1      491
siesta:     49.15632  37.62906  40.95981  1      492
siesta:     57.17645  36.91528  40.95981  1      493
siesta:     65.19658  36.20150  40.95981  1      494
siesta:     73.21671  35.48772  40.95981  1      495
siesta:     29.31204  41.72872  40.95981  1      496
siesta:     37.33217  41.01494  40.95981  1      497
siesta:     45.35230  40.30116  40.95981  1      498
siesta:     53.37243  39.58738  40.95981  1      499
siesta:     61.39256  38.87360  40.95981  1      500
siesta:     69.41269  38.15982  40.95981  1      501
siesta:     77.43282  37.44604  40.95981  1      502
siesta:     33.52816  43.68705  40.95981  1      503
siesta:     41.54829  42.97326  40.95981  1      504
siesta:     49.56842  42.25948  40.95981  1      505
siesta:     57.58855  41.54570  40.95981  1      506
siesta:     65.60868  40.83192  40.95981  1      507
siesta:     73.62881  40.11814  40.95981  1      508

siesta: System type = slab      

initatomlists: Number of atoms, orbitals, and projectors:    508  4572  4064

siesta: ******************** Simulation parameters ****************************
siesta:
siesta: The following are some of the parameters of the simulation.
siesta: A complete list of the parameters used, including default values,
siesta: can be found in file out.fdf
siesta:
redata: Spin configuration                          = none
redata: Number of spin components                   = 1
redata: Time-Reversal Symmetry                      = T
redata: Spin spiral                                 = F
redata: Long output                                 =   F
redata: Number of Atomic Species                    =        1
redata: Charge density info will appear in .RHO file
redata: Write Mulliken Pop.                         = NO
redata: Matel table size (NRTAB)                    =     1024
redata: Mesh Cutoff                                 =   300.0000 Ry
redata: Net charge of the system                    =     0.0000 |e|
redata: Min. number of SCF Iter                     =        3
redata: Max. number of SCF Iter                     =      300
redata: SCF convergence failure will abort job
redata: SCF mix quantity                            = Hamiltonian
redata: Mix DM or H after convergence               =   F
redata: Recompute H after scf cycle                 =   F
redata: Mix DM in first SCF step                    =   T
redata: Write Pulay info on disk                    =   F
redata: New DM Occupancy tolerance                  = 0.000000000001
redata: No kicks to SCF
redata: DM Mixing Weight for Kicks                  =     0.5000
redata: Require Harris convergence for SCF          =   F
redata: Harris energy tolerance for SCF             =     0.000100 eV
redata: Require DM convergence for SCF              =   T
redata: DM tolerance for SCF                        =     0.000100
redata: Require EDM convergence for SCF             =   F
redata: EDM tolerance for SCF                       =     0.001000 eV
redata: Require H convergence for SCF               =   T
redata: Hamiltonian tolerance for SCF               =     0.001000 eV
redata: Require (free) Energy convergence for SCF   =   F
redata: (free) Energy tolerance for SCF             =     0.000100 eV
redata: Using DFT-D3 dispersion                     =   T
redata: Using Saved Data (generic)                  =   F
redata: Use continuation files for DM               =   T
redata: Neglect nonoverlap interactions             =   F
redata: Method of Calculation                       = Diagonalization
redata: Electronic Temperature                      =   299.9863 K
redata: Fix the spin of the system                  =   F
redata: Max. number of TDED Iter                    =        1
redata: Number of TDED substeps                     =        3
redata: Dynamics option                             = CG coord. optimization
redata: Variable cell                               =   F
redata: Use continuation files for CG               =   F
redata: Max atomic displ per move                   =     0.2646 Ang
redata: Maximum number of optimization moves        =      200
redata: Force tolerance                             =     0.0100 eV/Ang
mix.SCF: Pulay mixing                            = Pulay
mix.SCF:    Variant                              = stable
mix.SCF:    History steps                        = 12
mix.SCF:    Linear mixing weight                 =     0.100000
mix.SCF:    Mixing weight                        =     0.100000
mix.SCF:    SVD condition                        = 0.1000E-07
redata: Save all siesta data in one NC              =   F
redata: ***********************************************************************

%block SCF.Mixers
  Pulay
%endblock SCF.Mixers

%block SCF.Mixer.Pulay
  # Mixing method
  method pulay
  variant stable

  # Mixing options
  weight 0.1000
  weight.linear 0.1000
  history 12
%endblock SCF.Mixer.Pulay
 
DFT-D3: loading default parameters for functional PBE.
DM_history_depth set to one: no extrapolation allowed by default for geometry relaxation
Size of DM history Fstack: 1
Total number of electrons:  2032.000000
Total ionic charge:  2032.000000

* ProcessorY, Blocksize:    8  64


* Orbital distribution balance (max,min):   128    64

 Kpoints in:            1 . Kpoints trimmed:            1

siesta: k-grid: Number of k-points = 1
siesta: k-points from Monkhorst-Pack grid
siesta: k-cutoff (effective) =    13.861 Ang
siesta: k-point supercell and displacements
siesta: k-grid:     1     0     0      0.000
siesta: k-grid:     0     1     0      0.000
siesta: k-grid:     0     0     1      0.000
 
diag: Algorithm                                     = D&C
diag: Parallel over k                               =   F
diag: Use parallel 2D distribution                  =   T
diag: Parallel block-size                           = 64
diag: Parallel distribution                         =     8 x     8
diag: Used triangular part                          = Lower
diag: Absolute tolerance                            =  0.100E-15
diag: Orthogonalization factor                      =  0.100E-05
diag: Memory factor                                 =  1.0000
 
siesta: Constraint v=[  0.00000,  0.00000,  1.00000] (508): center-dir
  [ 1 -- 508 ]
 
 
ts: **************************************************************
ts: Save H and S matrices                           =    F
ts: Save DM and EDM matrices                        =    F
ts: Only save the overlap matrix S                  =    F
ts: **************************************************************
 
************************ Begin: TS CHECKS AND WARNINGS ************************
************************ End: TS CHECKS AND WARNINGS **************************


                     ====================================
                        Begin CG opt. move =      0
                     ====================================

outcell: Unit cell vectors (Ang):
       27.695492   -1.230000    0.000000
       14.912957   23.370000    0.000000
        0.000000    0.000000   40.000000

outcell: Cell vector modules (Ang)   :   27.722792   27.722792   40.000000
outcell: Cell angles (23,13,12) (deg):     90.0000     90.0000     60.0000
outcell: Cell volume (Ang**3)        :  26623.4638
<dSpData1D:S at geom step 0
  <sparsity:sparsity for geom step 0
    nrows_g=4572 nrows=128 sparsity=.0059 nnzs=123818, refcount: 7>
  <dData1D:(new from dSpData1D) n=123818, refcount: 1>
refcount: 1>
new_DM -- step:     1
Initializing Density Matrix...
 
Attempting to read DM from file... Failed...
DM filled with atomic data:
<dSpData2D:DM initialized from atoms
  <sparsity:sparsity for geom step 0
    nrows_g=4572 nrows=128 sparsity=.0059 nnzs=123818, refcount: 8>
  <dData2D:DM n=123818 m=1, refcount: 1>
refcount: 1>
No. of atoms with KB's overlaping orbs in proc 0. Max # of overlaps:     269     237

InitMesh: MESH = 256 x 256 x 432 = 28311552
InitMesh: Mesh cutoff (required, used) =   300.000   314.229 Ry
New grid distribution [1]: sub = 2
New grid distribution [2]: sub = 2
New grid distribution [3]: sub = 2
Setting up quadratic distribution...

stepf: Fermi-Dirac step function

siesta: Program's energy decomposition (eV):
siesta: Ebs     =    -29747.142366
siesta: Eions   =    143338.147527
siesta: Ena     =     31650.969748
siesta: Ekin    =     56002.548616
siesta: Enl     =     -2523.327560
siesta: Eso     =         0.000000
siesta: Edftu   =         0.000000
siesta: DEna    =      4288.862948
siesta: DUscf   =       273.422635
siesta: DUext   =         0.000000
siesta: Ex      =    -26783.719062
siesta: Ec      =     -2584.431050
siesta: Exc     =    -29368.150112
siesta: EbV     =         0.000000
siesta: eta*DQ  =         0.000000
siesta: Emadel  =         0.000000
siesta: Emeta   =         0.000000
siesta: Emolmec =         0.000000
siesta: Ekinion =         0.000000
siesta: Eharris =    -85022.732252
siesta: Etot    =    -83013.821252
siesta: FreeEng =    -83013.821252

        iscf     Eharris(eV)        E_KS(eV)     FreeEng(eV)     dDmax    Ef(eV) dHmax(eV)
   scf:    1   -85022.732252   -83013.821252   -83013.821252  1.203671 -1.360969  4.772363
timer: Routine,Calls,Time,% = IterSCF        1       4.628  43.96
   scf:    2   -83036.053812   -83025.090694   -83025.090694  0.008883 -1.737611  4.007528
   scf:    3   -83076.334625   -83054.216295   -83054.216295  0.046778 -3.694364  0.327467
   scf:    4   -83055.634479   -83055.047013   -83055.047013  0.008418 -3.983180  0.166866
   scf:    5   -83055.038704   -83055.088154   -83055.088154  0.001559 -3.881135  0.114352
   scf:    6   -83055.108996   -83055.107942   -83055.107942  0.001071 -3.944056  0.028965
   scf:    7   -83055.114246   -83055.111684   -83055.111684  0.000851 -3.941345  0.004215
   scf:    8   -83055.111629   -83055.111708   -83055.111708  0.000066 -3.942018  0.002272
   scf:    9   -83055.111606   -83055.111682   -83055.111682  0.000110 -3.945135  0.005631
   scf:   10   -83055.111794   -83055.111748   -83055.111748  0.000081 -3.941409  0.000808

SCF Convergence by DM+H criterion
max |DM_out - DM_in|         :     0.0000810775
max |H_out - H_in|      (eV) :     0.0008079912
SCF cycle converged after 10 iterations

Using DM_out to compute the final energy and forces
No. of atoms with KB's overlaping orbs in proc 0. Max # of overlaps:     269     237
System symmetry is of type slab but no DFTD3.Periodic list was found. Attempting to guess symmetry for D3.
Could not guess the right amount of periodicity directions for D3.
Enabling periodicity on all directions.

siesta: E_KS(eV) =           -83106.4421

siesta: E_KS - E_eggbox =    -83106.4421

siesta: Atomic forces (eV/Ang):
----------------------------------------
   Tot   -0.000000    0.000000   -0.000000
----------------------------------------
   Max    0.049882
   Res    0.016791    sqrt( Sum f_i^2 / 3N )
----------------------------------------
   Max    0.049882    constrained

Stress tensor Voigt[x,y,z,yz,xz,xy] (kbar):      -25.70      -25.71       -5.44       -0.00       -0.00        0.00
(Free)E + p*V (eV/cell)   -82791.5585
Target enthalpy (eV/cell)   -83106.4421

                     ====================================
                        Begin CG opt. move =      1
                     ====================================

outcell: Unit cell vectors (Ang):
       27.695492   -1.230000    0.000000
       14.912957   23.370000    0.000000
        0.000000    0.000000   40.000000

outcell: Cell vector modules (Ang)   :   27.722792   27.722792   40.000000
outcell: Cell angles (23,13,12) (deg):     90.0000     90.0000     60.0000
outcell: Cell volume (Ang**3)        :  26623.4638
<dSpData1D:S at geom step 1
  <sparsity:sparsity for geom step 1
    nrows_g=4572 nrows=128 sparsity=.0059 nnzs=123560, refcount: 7>
  <dData1D:(new from dSpData1D) n=123560, refcount: 1>
refcount: 1>
new_DM -- step:     2
Re-using DM from previous geometries...
Number of DMs in history: 1
 DM extrapolation coefficients: 
1   1.00000
New DM after history re-use:
<dSpData2D:SpM extrapolated using coords
  <sparsity:sparsity for geom step 1
    nrows_g=4572 nrows=128 sparsity=.0059 nnzs=123560, refcount: 9>
  <dData2D:(temp array for extrapolation) n=123560 m=1, refcount: 1>
refcount: 1>
No. of atoms with KB's overlaping orbs in proc 0. Max # of overlaps:     267     234

InitMesh: MESH = 256 x 256 x 432 = 28311552
InitMesh: Mesh cutoff (required, used) =   300.000   314.229 Ry
New grid distribution [1]: sub = 2
New grid distribution [2]: sub = 2
New grid distribution [3]: sub = 2
Setting up quadratic distribution...

        iscf     Eharris(eV)        E_KS(eV)     FreeEng(eV)     dDmax    Ef(eV) dHmax(eV)
   scf:    1   -83107.357002   -83106.598047   -83106.598047  0.005972 -3.943512  0.121642
   scf:    2   -83105.892201   -83106.377507   -83106.377507  0.003352 -3.937236  0.823258
   scf:    3   -83106.634098   -83106.604713   -83106.604713  0.002848 -3.944341  0.010735
   scf:    4   -83106.605632   -83106.605195   -83106.605195  0.000090 -3.944264  0.007646
   scf:    5   -83106.605871   -83106.605559   -83106.605559  0.000135 -3.944463  0.002693
   scf:    6   -83106.605654   -83106.605613   -83106.605613  0.000072 -3.944918  0.000627

SCF Convergence by DM+H criterion
max |DM_out - DM_in|         :     0.0000716579
max |H_out - H_in|      (eV) :     0.0006272070
SCF cycle converged after 6 iterations

Using DM_out to compute the final energy and forces
No. of atoms with KB's overlaping orbs in proc 0. Max # of overlaps:     267     234
System symmetry is of type slab but no DFTD3.Periodic list was found. Attempting to guess symmetry for D3.
Could not guess the right amount of periodicity directions for D3.
Enabling periodicity on all directions.

siesta: E_KS(eV) =           -83106.3992

siesta: Atomic forces (eV/Ang):
----------------------------------------
   Tot   -0.000000   -0.000001   -0.000001
----------------------------------------
   Max    0.504220
   Res    0.175274    sqrt( Sum f_i^2 / 3N )
----------------------------------------
   Max    0.504220    constrained

Stress tensor Voigt[x,y,z,yz,xz,xy] (kbar):      -25.76      -25.82       -5.22       -0.00        0.00        0.05
(Free)E + p*V (eV/cell)   -82791.7696
Target enthalpy (eV/cell)   -83106.3992

                     ====================================
                        Begin CG opt. move =      2
                     ====================================

outcell: Unit cell vectors (Ang):
       27.695492   -1.230000    0.000000
       14.912957   23.370000    0.000000
        0.000000    0.000000   40.000000

outcell: Cell vector modules (Ang)   :   27.722792   27.722792   40.000000
outcell: Cell angles (23,13,12) (deg):     90.0000     90.0000     60.0000
outcell: Cell volume (Ang**3)        :  26623.4638
<dSpData1D:S at geom step 2
  <sparsity:sparsity for geom step 2
    nrows_g=4572 nrows=128 sparsity=.0059 nnzs=123705, refcount: 7>
  <dData1D:(new from dSpData1D) n=123705, refcount: 1>
refcount: 1>
new_DM -- step:     3
Re-using DM from previous geometries...
Number of DMs in history: 1
 DM extrapolation coefficients: 
1   1.00000
New DM after history re-use:
<dSpData2D:SpM extrapolated using coords
  <sparsity:sparsity for geom step 2
    nrows_g=4572 nrows=128 sparsity=.0059 nnzs=123705, refcount: 9>
  <dData2D:(temp array for extrapolation) n=123705 m=1, refcount: 1>
refcount: 1>
No. of atoms with KB's overlaping orbs in proc 0. Max # of overlaps:     268     234

InitMesh: MESH = 256 x 256 x 432 = 28311552
InitMesh: Mesh cutoff (required, used) =   300.000   314.229 Ry
New grid distribution [1]: sub = 2
New grid distribution [2]: sub = 2
New grid distribution [3]: sub = 2
Setting up quadratic distribution...

        iscf     Eharris(eV)        E_KS(eV)     FreeEng(eV)     dDmax    Ef(eV) dHmax(eV)
   scf:    1   -83105.918906   -83106.351916   -83106.351916  0.006297 -3.938349  0.037157
   scf:    2   -83106.263436   -83106.324539   -83106.324539  0.001260 -3.945201  0.232031
   scf:    3   -83106.356506   -83106.353026   -83106.353026  0.001065 -3.945748  0.006385
   scf:    4   -83106.353377   -83106.353211   -83106.353211  0.000060 -3.945788  0.004377
   scf:    5   -83106.353425   -83106.353325   -83106.353325  0.000074 -3.945641  0.001632
   scf:    6   -83106.353360   -83106.353345   -83106.353345  0.000042 -3.945382  0.000328

SCF Convergence by DM+H criterion
max |DM_out - DM_in|         :     0.0000421090
max |H_out - H_in|      (eV) :     0.0003275662
SCF cycle converged after 6 iterations

Using DM_out to compute the final energy and forces
No. of atoms with KB's overlaping orbs in proc 0. Max # of overlaps:     268     234
System symmetry is of type slab but no DFTD3.Periodic list was found. Attempting to guess symmetry for D3.
Could not guess the right amount of periodicity directions for D3.
Enabling periodicity on all directions.

siesta: E_KS(eV) =           -83106.4769

siesta: Atomic forces (eV/Ang):
----------------------------------------
   Tot   -0.000001    0.000000    0.000000
----------------------------------------
   Max    0.195321
   Res    0.069367    sqrt( Sum f_i^2 / 3N )
----------------------------------------
   Max    0.195321    constrained

Stress tensor Voigt[x,y,z,yz,xz,xy] (kbar):      -25.72      -25.75       -5.35        0.00        0.00        0.02
(Free)E + p*V (eV/cell)   -82791.7490
Target enthalpy (eV/cell)   -83106.4769

cgvc: Finished line minimization    1.  Mean atomic displacement =    0.0089

                     ====================================
                        Begin CG opt. move =      3
                     ====================================

outcell: Unit cell vectors (Ang):
       27.695492   -1.230000    0.000000
       14.912957   23.370000    0.000000
        0.000000    0.000000   40.000000

outcell: Cell vector modules (Ang)   :   27.722792   27.722792   40.000000
outcell: Cell angles (23,13,12) (deg):     90.0000     90.0000     60.0000
outcell: Cell volume (Ang**3)        :  26623.4638
<dSpData1D:S at geom step 3
  <sparsity:sparsity for geom step 3
    nrows_g=4572 nrows=128 sparsity=.0059 nnzs=123560, refcount: 7>
  <dData1D:(new from dSpData1D) n=123560, refcount: 1>
refcount: 1>
new_DM -- step:     4
Re-using DM from previous geometries...
Number of DMs in history: 1
 DM extrapolation coefficients: 
1   1.00000
New DM after history re-use:
<dSpData2D:SpM extrapolated using coords
  <sparsity:sparsity for geom step 3
    nrows_g=4572 nrows=128 sparsity=.0059 nnzs=123560, refcount: 9>
  <dData2D:(temp array for extrapolation) n=123560 m=1, refcount: 1>
refcount: 1>
No. of atoms with KB's overlaping orbs in proc 0. Max # of overlaps:     267     234

InitMesh: MESH = 256 x 256 x 432 = 28311552
InitMesh: Mesh cutoff (required, used) =   300.000   314.229 Ry
New grid distribution [1]: sub = 2
New grid distribution [2]: sub = 2
New grid distribution [3]: sub = 2
Setting up quadratic distribution...

        iscf     Eharris(eV)        E_KS(eV)     FreeEng(eV)     dDmax    Ef(eV) dHmax(eV)
   scf:    1   -83106.954869   -83106.625317   -83106.625317  0.000483 -3.941605  0.014222
   scf:    2   -83106.619318   -83106.623497   -83106.623497  0.000592 -3.941509  0.068738
   scf:    3   -83106.625718   -83106.625422   -83106.625422  0.000492 -3.941569  0.001077
   scf:    4   -83106.625430   -83106.625426   -83106.625426  0.000010 -3.941582  0.000656

SCF Convergence by DM+H criterion
max |DM_out - DM_in|         :     0.0000103780
max |H_out - H_in|      (eV) :     0.0006562692
SCF cycle converged after 4 iterations

Using DM_out to compute the final energy and forces
No. of atoms with KB's overlaping orbs in proc 0. Max # of overlaps:     267     234
System symmetry is of type slab but no DFTD3.Periodic list was found. Attempting to guess symmetry for D3.
Could not guess the right amount of periodicity directions for D3.
Enabling periodicity on all directions.

siesta: E_KS(eV) =           -83106.5406

siesta: Atomic forces (eV/Ang):
----------------------------------------
   Tot   -0.000001    0.000000    0.000001
----------------------------------------
   Max    0.172966
   Res    0.061598    sqrt( Sum f_i^2 / 3N )
----------------------------------------
   Max    0.172966    constrained

Stress tensor Voigt[x,y,z,yz,xz,xy] (kbar):      -25.75      -25.77       -5.26        0.00        0.00        0.02
(Free)E + p*V (eV/cell)   -82792.0636
Target enthalpy (eV/cell)   -83106.5406

                     ====================================
                        Begin CG opt. move =      4
                     ====================================

outcell: Unit cell vectors (Ang):
       27.695492   -1.230000    0.000000
       14.912957   23.370000    0.000000
        0.000000    0.000000   40.000000

outcell: Cell vector modules (Ang)   :   27.722792   27.722792   40.000000
outcell: Cell angles (23,13,12) (deg):     90.0000     90.0000     60.0000
outcell: Cell volume (Ang**3)        :  26623.4638
<dSpData1D:S at geom step 4
  <sparsity:sparsity for geom step 4
    nrows_g=4572 nrows=128 sparsity=.0059 nnzs=123357, refcount: 7>
  <dData1D:(new from dSpData1D) n=123357, refcount: 1>
refcount: 1>
new_DM -- step:     5
Re-using DM from previous geometries...
Number of DMs in history: 1
 DM extrapolation coefficients: 
1   1.00000
New DM after history re-use:
<dSpData2D:SpM extrapolated using coords
  <sparsity:sparsity for geom step 4
    nrows_g=4572 nrows=128 sparsity=.0059 nnzs=123357, refcount: 9>
  <dData2D:(temp array for extrapolation) n=123357 m=1, refcount: 1>
refcount: 1>
No. of atoms with KB's overlaping orbs in proc 0. Max # of overlaps:     267     234

InitMesh: MESH = 256 x 256 x 432 = 28311552
InitMesh: Mesh cutoff (required, used) =   300.000   314.229 Ry
New grid distribution [1]: sub = 2
New grid distribution [2]: sub = 2
New grid distribution [3]: sub = 2
Setting up quadratic distribution...

        iscf     Eharris(eV)        E_KS(eV)     FreeEng(eV)     dDmax    Ef(eV) dHmax(eV)
   scf:    1   -83107.259092   -83106.762407   -83106.762407  0.000773 -3.943425  0.019737
   scf:    2   -83106.749860   -83106.758616   -83106.758616  0.000852 -3.942296  0.091881
   scf:    3   -83106.763324   -83106.762640   -83106.762640  0.000702 -3.943218  0.001442
   scf:    4   -83106.762655   -83106.762648   -83106.762648  0.000010 -3.943252  0.001003
   scf:    5   -83106.762654   -83106.762652   -83106.762652  0.000008 -3.943331  0.000574

SCF Convergence by DM+H criterion
max |DM_out - DM_in|         :     0.0000081590
max |H_out - H_in|      (eV) :     0.0005737573
SCF cycle converged after 5 iterations

Using DM_out to compute the final energy and forces
No. of atoms with KB's overlaping orbs in proc 0. Max # of overlaps:     267     234
System symmetry is of type slab but no DFTD3.Periodic list was found. Attempting to guess symmetry for D3.
Could not guess the right amount of periodicity directions for D3.
Enabling periodicity on all directions.

siesta: E_KS(eV) =           -83106.6275

siesta: Atomic forces (eV/Ang):
----------------------------------------
   Tot    0.000001    0.000001    0.000002
----------------------------------------
   Max    0.136991
   Res    0.049212    sqrt( Sum f_i^2 / 3N )
----------------------------------------
   Max    0.136991    constrained

Stress tensor Voigt[x,y,z,yz,xz,xy] (kbar):      -25.78      -25.79       -5.13        0.00        0.00        0.01
(Free)E + p*V (eV/cell)   -82792.5761
Target enthalpy (eV/cell)   -83106.6275

                     ====================================
                        Begin CG opt. move =      5
                     ====================================

outcell: Unit cell vectors (Ang):
       27.695492   -1.230000    0.000000
       14.912957   23.370000    0.000000
        0.000000    0.000000   40.000000

outcell: Cell vector modules (Ang)   :   27.722792   27.722792   40.000000
outcell: Cell angles (23,13,12) (deg):     90.0000     90.0000     60.0000
outcell: Cell volume (Ang**3)        :  26623.4638
<dSpData1D:S at geom step 5
  <sparsity:sparsity for geom step 5
    nrows_g=4572 nrows=128 sparsity=.0059 nnzs=122847, refcount: 7>
  <dData1D:(new from dSpData1D) n=122847, refcount: 1>
refcount: 1>
new_DM -- step:     6
Re-using DM from previous geometries...
Number of DMs in history: 1
 DM extrapolation coefficients: 
1   1.00000
New DM after history re-use:
<dSpData2D:SpM extrapolated using coords
  <sparsity:sparsity for geom step 5
    nrows_g=4572 nrows=128 sparsity=.0059 nnzs=122847, refcount: 9>
  <dData2D:(temp array for extrapolation) n=122847 m=1, refcount: 1>
refcount: 1>
No. of atoms with KB's overlaping orbs in proc 0. Max # of overlaps:     264     233

InitMesh: MESH = 256 x 256 x 432 = 28311552
InitMesh: Mesh cutoff (required, used) =   300.000   314.229 Ry
New grid distribution [1]: sub = 2
New grid distribution [2]: sub = 2
New grid distribution [3]: sub = 2
Setting up quadratic distribution...

        iscf     Eharris(eV)        E_KS(eV)     FreeEng(eV)     dDmax    Ef(eV) dHmax(eV)
   scf:    1   -83107.663864   -83106.943690   -83106.943690  0.001233 -3.935277  0.032059
   scf:    2   -83106.910795   -83106.933795   -83106.933795  0.001222 -3.933067  0.165693
   scf:    3   -83106.946058   -83106.944349   -83106.944349  0.001005 -3.934824  0.002860
   scf:    4   -83106.944408   -83106.944381   -83106.944381  0.000024 -3.934825  0.001356
   scf:    5   -83106.944399   -83106.944391   -83106.944391  0.000012 -3.934927  0.001079
   scf:    6   -83106.944401   -83106.944397   -83106.944397  0.000023 -3.935454  0.000255

SCF Convergence by DM+H criterion
max |DM_out - DM_in|         :     0.0000233966
max |H_out - H_in|      (eV) :     0.0002554603
SCF cycle converged after 6 iterations

Using DM_out to compute the final energy and forces
No. of atoms with KB's overlaping orbs in proc 0. Max # of overlaps:     264     233
System symmetry is of type slab but no DFTD3.Periodic list was found. Attempting to guess symmetry for D3.
Could not guess the right amount of periodicity directions for D3.
Enabling periodicity on all directions.

siesta: E_KS(eV) =           -83106.7296

siesta: Atomic forces (eV/Ang):
----------------------------------------
   Tot    0.000008   -0.000015    0.000008
----------------------------------------
   Max    0.080987
   Res    0.030314    sqrt( Sum f_i^2 / 3N )
----------------------------------------
   Max    0.080987    constrained

Stress tensor Voigt[x,y,z,yz,xz,xy] (kbar):      -25.82      -25.83       -4.94       -0.00       -0.00        0.01
(Free)E + p*V (eV/cell)   -82793.2677
Target enthalpy (eV/cell)   -83106.7296

                     ====================================
                        Begin CG opt. move =      6
                     ====================================

outcell: Unit cell vectors (Ang):
       27.695492   -1.230000    0.000000
       14.912957   23.370000    0.000000
        0.000000    0.000000   40.000000

outcell: Cell vector modules (Ang)   :   27.722792   27.722792   40.000000
outcell: Cell angles (23,13,12) (deg):     90.0000     90.0000     60.0000
outcell: Cell volume (Ang**3)        :  26623.4638
<dSpData1D:S at geom step 6
  <sparsity:sparsity for geom step 6
    nrows_g=4572 nrows=128 sparsity=.0059 nnzs=122600, refcount: 7>
  <dData1D:(new from dSpData1D) n=122600, refcount: 1>
refcount: 1>
new_DM -- step:     7
Re-using DM from previous geometries...
Number of DMs in history: 1
 DM extrapolation coefficients: 
1   1.00000
New DM after history re-use:
<dSpData2D:SpM extrapolated using coords
  <sparsity:sparsity for geom step 6
    nrows_g=4572 nrows=128 sparsity=.0059 nnzs=122600, refcount: 9>
  <dData2D:(temp array for extrapolation) n=122600 m=1, refcount: 1>
refcount: 1>
No. of atoms with KB's overlaping orbs in proc 0. Max # of overlaps:     261     232

InitMesh: MESH = 256 x 256 x 432 = 28311552
InitMesh: Mesh cutoff (required, used) =   300.000   314.229 Ry
New grid distribution [1]: sub = 2
New grid distribution [2]: sub = 2
New grid distribution [3]: sub = 2
Setting up quadratic distribution...

        iscf     Eharris(eV)        E_KS(eV)     FreeEng(eV)     dDmax    Ef(eV) dHmax(eV)
   scf:    1   -83108.117893   -83107.141203   -83107.141203  0.010192 -3.941834  0.082454
   scf:    2   -83106.995241   -83107.096651   -83107.096651  0.002614 -3.924388  0.463548
   scf:    3   -83107.149967   -83107.143506   -83107.143506  0.002224 -3.941148  0.006088
   scf:    4   -83107.143751   -83107.143646   -83107.143646  0.000055 -3.941045  0.002757
   scf:    5   -83107.143715   -83107.143684   -83107.143684  0.000029 -3.941220  0.001833
   scf:    6   -83107.143715   -83107.143703   -83107.143703  0.000042 -3.926831  0.000400

SCF Convergence by DM+H criterion
max |DM_out - DM_in|         :     0.0000423139
max |H_out - H_in|      (eV) :     0.0003999701
SCF cycle converged after 6 iterations

Using DM_out to compute the final energy and forces
No. of atoms with KB's overlaping orbs in proc 0. Max # of overlaps:     261     232
System symmetry is of type slab but no DFTD3.Periodic list was found. Attempting to guess symmetry for D3.
Could not guess the right amount of periodicity directions for D3.
Enabling periodicity on all directions.

siesta: E_KS(eV) =           -83106.8032

siesta: Atomic forces (eV/Ang):
----------------------------------------
   Tot   -0.000001    0.000001   -0.000004
----------------------------------------
   Max    0.046635
   Res    0.017739    sqrt( Sum f_i^2 / 3N )
----------------------------------------
   Max    0.046635    constrained

Stress tensor Voigt[x,y,z,yz,xz,xy] (kbar):      -25.89      -25.89       -4.65        0.00       -0.00       -0.00
(Free)E + p*V (eV/cell)   -82794.2637
Target enthalpy (eV/cell)   -83106.8032

                     ====================================
                        Begin CG opt. move =      7
                     ====================================

outcell: Unit cell vectors (Ang):
       27.695492   -1.230000    0.000000
       14.912957   23.370000    0.000000
        0.000000    0.000000   40.000000

outcell: Cell vector modules (Ang)   :   27.722792   27.722792   40.000000
outcell: Cell angles (23,13,12) (deg):     90.0000     90.0000     60.0000
outcell: Cell volume (Ang**3)        :  26623.4638
<dSpData1D:S at geom step 7
  <sparsity:sparsity for geom step 7
    nrows_g=4572 nrows=128 sparsity=.0059 nnzs=123659, refcount: 7>
  <dData1D:(new from dSpData1D) n=123659, refcount: 1>
refcount: 1>
new_DM -- step:     8
Re-using DM from previous geometries...
Number of DMs in history: 1
 DM extrapolation coefficients: 
1   1.00000
New DM after history re-use:
<dSpData2D:SpM extrapolated using coords
  <sparsity:sparsity for geom step 7
    nrows_g=4572 nrows=128 sparsity=.0059 nnzs=123659, refcount: 9>
  <dData2D:(temp array for extrapolation) n=123659 m=1, refcount: 1>
refcount: 1>
No. of atoms with KB's overlaping orbs in proc 0. Max # of overlaps:     266     236

InitMesh: MESH = 256 x 256 x 432 = 28311552
InitMesh: Mesh cutoff (required, used) =   300.000   314.229 Ry
New grid distribution [1]: sub = 2
New grid distribution [2]: sub = 2
New grid distribution [3]: sub = 2
Setting up quadratic distribution...

        iscf     Eharris(eV)        E_KS(eV)     FreeEng(eV)     dDmax    Ef(eV) dHmax(eV)
   scf:    1   -83108.407731   -83107.239789   -83107.239789  0.010399 -3.957546  0.189989
   scf:    2   -83106.484768   -83107.006586   -83107.006586  0.005566 -3.931123  1.099709
   scf:    3   -83107.281700   -83107.249170   -83107.249170  0.004760 -3.956421  0.011293
   scf:    4   -83107.250003   -83107.249656   -83107.249656  0.000103 -3.956067  0.004732
   scf:    5   -83107.249854   -83107.249766   -83107.249766  0.000052 -3.956317  0.002913
   scf:    6   -83107.249851   -83107.249816   -83107.249816  0.000070 -3.957750  0.000955

SCF Convergence by DM+H criterion
max |DM_out - DM_in|         :     0.0000695345
max |H_out - H_in|      (eV) :     0.0009548653
SCF cycle converged after 6 iterations

Using DM_out to compute the final energy and forces
No. of atoms with KB's overlaping orbs in proc 0. Max # of overlaps:     266     236
System symmetry is of type slab but no DFTD3.Periodic list was found. Attempting to guess symmetry for D3.
Could not guess the right amount of periodicity directions for D3.
Enabling periodicity on all directions.

siesta: E_KS(eV) =           -83106.7153

siesta: Atomic forces (eV/Ang):
----------------------------------------
   Tot   -0.000001   -0.000000   -0.000007
----------------------------------------
   Max    0.192338
   Res    0.062374    sqrt( Sum f_i^2 / 3N )
----------------------------------------
   Max    0.192338    constrained

Stress tensor Voigt[x,y,z,yz,xz,xy] (kbar):      -25.98      -25.96       -4.25       -0.00        0.00       -0.02
(Free)E + p*V (eV/cell)   -82795.4803
Target enthalpy (eV/cell)   -83106.7153

                     ====================================
                        Begin CG opt. move =      8
                     ====================================

outcell: Unit cell vectors (Ang):
       27.695492   -1.230000    0.000000
       14.912957   23.370000    0.000000
        0.000000    0.000000   40.000000

outcell: Cell vector modules (Ang)   :   27.722792   27.722792   40.000000
outcell: Cell angles (23,13,12) (deg):     90.0000     90.0000     60.0000
outcell: Cell volume (Ang**3)        :  26623.4638
<dSpData1D:S at geom step 8
  <sparsity:sparsity for geom step 8
    nrows_g=4572 nrows=128 sparsity=.0059 nnzs=122957, refcount: 7>
  <dData1D:(new from dSpData1D) n=122957, refcount: 1>
refcount: 1>
new_DM -- step:     9
Re-using DM from previous geometries...
Number of DMs in history: 1
 DM extrapolation coefficients: 
1   1.00000
New DM after history re-use:
<dSpData2D:SpM extrapolated using coords
  <sparsity:sparsity for geom step 8
    nrows_g=4572 nrows=128 sparsity=.0059 nnzs=122957, refcount: 9>
  <dData2D:(temp array for extrapolation) n=122957 m=1, refcount: 1>
refcount: 1>
No. of atoms with KB's overlaping orbs in proc 0. Max # of overlaps:     262     234

InitMesh: MESH = 256 x 256 x 432 = 28311552
InitMesh: Mesh cutoff (required, used) =   300.000   314.229 Ry
New grid distribution [1]: sub = 2
New grid distribution [2]: sub = 2
New grid distribution [3]: sub = 2
Setting up quadratic distribution...

        iscf     Eharris(eV)        E_KS(eV)     FreeEng(eV)     dDmax    Ef(eV) dHmax(eV)
   scf:    1   -83105.355597   -83106.336665   -83106.336665  0.035378 -3.940015  0.233351
   scf:    2   -83105.253900   -83106.000214   -83106.000214  0.006737 -3.951324  1.378288
   scf:    3   -83106.394557   -83106.348320   -83106.348320  0.005783 -3.940800  0.011276
   scf:    4   -83106.349171   -83106.348825   -83106.348825  0.000110 -3.941350  0.004706
   scf:    5   -83106.348994   -83106.348919   -83106.348919  0.000052 -3.941173  0.002721
   scf:    6   -83106.348991   -83106.348962   -83106.348962  0.000069 -3.939855  0.000627

SCF Convergence by DM+H criterion
max |DM_out - DM_in|         :     0.0000692278
max |H_out - H_in|      (eV) :     0.0006267862
SCF cycle converged after 6 iterations

Using DM_out to compute the final energy and forces
No. of atoms with KB's overlaping orbs in proc 0. Max # of overlaps:     262     234
System symmetry is of type slab but no DFTD3.Periodic list was found. Attempting to guess symmetry for D3.
Could not guess the right amount of periodicity directions for D3.
Enabling periodicity on all directions.

siesta: E_KS(eV) =           -83106.8055

siesta: Atomic forces (eV/Ang):
----------------------------------------
   Tot   -0.000002   -0.000002    0.000001
----------------------------------------
   Max    0.060389
   Res    0.022129    sqrt( Sum f_i^2 / 3N )
----------------------------------------
   Max    0.060389    constrained

Stress tensor Voigt[x,y,z,yz,xz,xy] (kbar):      -25.90      -25.89       -4.59        0.00        0.00       -0.00
(Free)E + p*V (eV/cell)   -82794.5097
Target enthalpy (eV/cell)   -83106.8055

cgvc: Finished line minimization    2.  Mean atomic displacement =    0.0907

                     ====================================
                        Begin CG opt. move =      9
                     ====================================

outcell: Unit cell vectors (Ang):
       27.695492   -1.230000    0.000000
       14.912957   23.370000    0.000000
        0.000000    0.000000   40.000000

outcell: Cell vector modules (Ang)   :   27.722792   27.722792   40.000000
outcell: Cell angles (23,13,12) (deg):     90.0000     90.0000     60.0000
outcell: Cell volume (Ang**3)        :  26623.4638
<dSpData1D:S at geom step 9
  <sparsity:sparsity for geom step 9
    nrows_g=4572 nrows=128 sparsity=.0059 nnzs=122969, refcount: 7>
  <dData1D:(new from dSpData1D) n=122969, refcount: 1>
refcount: 1>
new_DM -- step:    10
Re-using DM from previous geometries...
Number of DMs in history: 1
 DM extrapolation coefficients: 
1   1.00000
New DM after history re-use:
<dSpData2D:SpM extrapolated using coords
  <sparsity:sparsity for geom step 9
    nrows_g=4572 nrows=128 sparsity=.0059 nnzs=122969, refcount: 9>
  <dData2D:(temp array for extrapolation) n=122969 m=1, refcount: 1>
refcount: 1>
No. of atoms with KB's overlaping orbs in proc 0. Max # of overlaps:     261     234

InitMesh: MESH = 256 x 256 x 432 = 28311552
InitMesh: Mesh cutoff (required, used) =   300.000   314.229 Ry
New grid distribution [1]: sub = 2
New grid distribution [2]: sub = 2
New grid distribution [3]: sub = 2
Setting up quadratic distribution...

        iscf     Eharris(eV)        E_KS(eV)     FreeEng(eV)     dDmax    Ef(eV) dHmax(eV)
   scf:    1   -83106.566313   -83105.722688   -83105.722688  0.018641 -3.964122  0.545205
   scf:    2   -83095.094977   -83102.572788   -83102.572788  0.032796 -3.919237  2.313432
   scf:    3   -83106.576690   -83105.982880   -83105.982880  0.026309 -3.961713  0.064794
   scf:    4   -83105.999791   -83105.993029   -83105.993029  0.001322 -3.961396  0.025317
   scf:    5   -83105.996872   -83105.995146   -83105.995146  0.000422 -3.961750  0.016967
   scf:    6   -83105.997394   -83105.996392   -83105.996392  0.000324 -3.963083  0.004797
   scf:    7   -83105.996642   -83105.996527   -83105.996527  0.000106 -3.963654  0.002702
   scf:    8   -83105.996581   -83105.996559   -83105.996559  0.000058 -3.963994  0.000792

SCF Convergence by DM+H criterion
max |DM_out - DM_in|         :     0.0000577138
max |H_out - H_in|      (eV) :     0.0007920100
SCF cycle converged after 8 iterations

Using DM_out to compute the final energy and forces
No. of atoms with KB's overlaping orbs in proc 0. Max # of overlaps:     261     234
System symmetry is of type slab but no DFTD3.Periodic list was found. Attempting to guess symmetry for D3.
Could not guess the right amount of periodicity directions for D3.
Enabling periodicity on all directions.

siesta: E_KS(eV) =           -83105.1510

siesta: Atomic forces (eV/Ang):
----------------------------------------
   Tot    0.000042    0.000088    0.000004
----------------------------------------
   Max    1.829293
   Res    0.492554    sqrt( Sum f_i^2 / 3N )
----------------------------------------
   Max    1.829293    constrained

Stress tensor Voigt[x,y,z,yz,xz,xy] (kbar):      -26.01      -26.43       -4.00       -0.00        0.00        0.30
(Free)E + p*V (eV/cell)   -82792.5372
Target enthalpy (eV/cell)   -83105.1510

                     ====================================
                        Begin CG opt. move =     10
                     ====================================

outcell: Unit cell vectors (Ang):
       27.695492   -1.230000    0.000000
       14.912957   23.370000    0.000000
        0.000000    0.000000   40.000000

outcell: Cell vector modules (Ang)   :   27.722792   27.722792   40.000000
outcell: Cell angles (23,13,12) (deg):     90.0000     90.0000     60.0000
outcell: Cell volume (Ang**3)        :  26623.4638
<dSpData1D:S at geom step 10
  <sparsity:sparsity for geom step 10
    nrows_g=4572 nrows=128 sparsity=.0059 nnzs=123138, refcount: 7>
  <dData1D:(new from dSpData1D) n=123138, refcount: 1>
refcount: 1>
new_DM -- step:    11
Re-using DM from previous geometries...
Number of DMs in history: 1
 DM extrapolation coefficients: 
1   1.00000
New DM after history re-use:
<dSpData2D:SpM extrapolated using coords
  <sparsity:sparsity for geom step 10
    nrows_g=4572 nrows=128 sparsity=.0059 nnzs=123138, refcount: 9>
  <dData2D:(temp array for extrapolation) n=123138 m=1, refcount: 1>
refcount: 1>
No. of atoms with KB's overlaping orbs in proc 0. Max # of overlaps:     262     234

InitMesh: MESH = 256 x 256 x 432 = 28311552
InitMesh: Mesh cutoff (required, used) =   300.000   314.229 Ry
New grid distribution [1]: sub = 2
New grid distribution [2]: sub = 2
New grid distribution [3]: sub = 2
Setting up quadratic distribution...

        iscf     Eharris(eV)        E_KS(eV)     FreeEng(eV)     dDmax    Ef(eV) dHmax(eV)
   scf:    1   -83103.753007   -83105.621350   -83105.621350  0.017363 -3.945530  0.878434
   scf:    2   -83079.046686   -83097.473367   -83097.473367  0.041689 -3.964300  4.375634
   scf:    3   -83107.165774   -83106.004902   -83106.004902  0.034626 -3.937661  0.099043
   scf:    4   -83106.031280   -83106.021329   -83106.021329  0.001694 -3.938653  0.029817
   scf:    5   -83106.026985   -83106.024658   -83106.024658  0.000636 -3.938785  0.017174
   scf:    6   -83106.026548   -83106.025683   -83106.025683  0.000228 -3.937835  0.009484
   scf:    7   -83106.026265   -83106.026007   -83106.026007  0.000157 -3.937129  0.003862
   scf:    8   -83106.026118   -83106.026074   -83106.026074  0.000083 -3.936477  0.001340
   scf:    9   -83106.026077   -83106.026076   -83106.026076  0.000019 -3.936457  0.000611

SCF Convergence by DM+H criterion
max |DM_out - DM_in|         :     0.0000193871
max |H_out - H_in|      (eV) :     0.0006111252
SCF cycle converged after 9 iterations

Using DM_out to compute the final energy and forces
No. of atoms with KB's overlaping orbs in proc 0. Max # of overlaps:     262     234
System symmetry is of type slab but no DFTD3.Periodic list was found. Attempting to guess symmetry for D3.
Could not guess the right amount of periodicity directions for D3.
Enabling periodicity on all directions.

siesta: E_KS(eV) =           -83106.8140

siesta: Atomic forces (eV/Ang):
----------------------------------------
   Tot    0.000001   -0.000001    0.000002
----------------------------------------
   Max    0.072559
   Res    0.024823    sqrt( Sum f_i^2 / 3N )
----------------------------------------
   Max    0.072559    constrained

Stress tensor Voigt[x,y,z,yz,xz,xy] (kbar):      -25.89      -25.92       -4.54        0.00       -0.00        0.02
(Free)E + p*V (eV/cell)   -82794.6718
Target enthalpy (eV/cell)   -83106.8140

cgvc: Finished line minimization    3.  Mean atomic displacement =    0.0061

                     ====================================
                        Begin CG opt. move =     11
                     ====================================

outcell: Unit cell vectors (Ang):
       27.695492   -1.230000    0.000000
       14.912957   23.370000    0.000000
        0.000000    0.000000   40.000000

outcell: Cell vector modules (Ang)   :   27.722792   27.722792   40.000000
[...]
   19.88724467   14.76188495   18.23337754   1     210  C
   24.14590306   14.76187548   18.26084336   1     211  C
   28.40562976   14.76000370   18.27470940   1     212  C
   32.66729585   14.75793375   18.25939363   1     213  C
   36.93026280   14.75749357   18.22564859   1     214  C
   13.49727318   15.98901744   18.20022450   1     215  C
   17.75799247   15.99159177   18.20582149   1     216  C
   22.01702137   15.99271872   18.23806975   1     217  C
   26.27614386   15.99134604   18.26872038   1     218  C
   30.53674855   15.98852248   18.26871965   1     219  C
   34.79887743   15.98683748   18.23490885   1     220  C
   11.36614392   17.21759331   18.19315352   1     221  C
   15.62783579   17.22036045   18.17926483   1     222  C
   19.88769386   17.22289224   18.20595304   1     223  C
   24.14656559   17.22271854   18.24926938   1     224  C
   28.40659694   17.21997580   18.27035970   1     225  C
   32.66793759   17.21710484   18.24926863   1     226  C
   36.93007964   17.21629067   18.19992915   1     227  C
   13.49682276   18.44846515   18.16275103   1     228  C
   17.75777470   18.45209819   18.17107614   1     229  C
   22.01709932   18.45365081   18.21763286   1     230  C
   26.27659141   18.45174875   18.25939426   1     231  C
   30.53711491   18.44809973   18.26084305   1     232  C
   34.79868827   18.44581057   18.21763301   1     233  C
   39.06067159   18.44670033   18.16275459   1     234  C
   15.62683321   19.68051927   18.14448391   1     235  C
   19.88715948   19.68356817   18.17906583   1     236  C
   24.14653969   19.68329953   18.23490770   1     237  C
   28.40666998   19.68015457   18.26260049   1     238  C
   32.66749970   19.67634484   18.23806939   1     239  C
   36.92879814   19.67543513   18.17906546   1     240  C
   13.49518505   20.90840527   18.13431427   1     241  C
   17.75620695   20.91258536   18.14414932   1     242  C
   22.01620093   20.91425122   18.19992847   1     243  C
   26.27618758   20.91207413   18.25044035   1     244  C
   30.53660599   20.90803138   18.25383839   1     245  C
   34.79752267   20.90530949   18.20595207   1     246  C
   39.05863376   20.90638681   18.14414893   1     247  C
   15.62449343   22.14075754   18.12347688   1     248  C
   19.88533713   22.14419225   18.16275479   1     249  C
   24.14548883   22.14380723   18.22564782   1     250  C
   28.40587499   22.14020153   18.25741980   1     251  C
   32.66645108   22.13620073   18.23337669   1     252  C
   36.92700528   22.13527057   18.17107540   1     253  C
   41.18811730   22.13841828   18.12347694   1     254  C
    3.64687243    0.90678173   21.85551624   1     255  C
    7.89027843    0.52794475   21.79417945   1     256  C
   12.13416221    0.15289175   21.74737798   1     257  C
   16.37829932   -0.22055309   21.75254543   1     258  C
   20.62230941   -0.59590549   21.80684648   1     259  C
   24.86624978   -0.97521904   21.86568574   1     260  C
    1.63527717    2.32279823   21.86568533   1     261  C
    5.87851008    1.94223728   21.82073583   1     262  C
   10.12169826    1.56538131   21.76222892   1     263  C
   14.36564773    1.19125438   21.74091218   1     264  C
   18.61005600    0.81734431   21.77407415   1     265  C
   22.85424244    0.44010247   21.83724899   1     266  C
   27.09860659    0.05881650   21.87652311   1     267  C
    3.86698315    3.35759032   21.83724885   1     268  C
    8.10956408    2.97877930   21.78259660   1     269  C
   12.35300639    2.60355721   21.74113287   1     270  C
   16.59722395    2.22974456   21.74808296   1     271  C
   20.84195576    1.85416930   21.79977549   1     272  C
   25.08675890    1.47488381   21.85551606   1     273  C
    6.09774365    4.39324608   21.79977504   1     274  C
   10.34030782    4.01627935   21.75094864   1     275  C
   14.58419773    3.64174939   21.73406702   1     276  C
   18.82918049    3.26715289   21.76445289   1     277  C
   23.07420763    2.88981109   21.82073514   1     278  C
   27.31891916    2.50913707   21.85585066   1     279  C
    4.08573954    5.80850387   21.80684673   1     280  C
    8.32781014    5.42986685   21.76445353   1     281  C
   12.57098016    5.05424320   21.73233542   1     282  C
   16.81556920    4.67978394   21.73913930   1     283  C
   21.06101032    4.30369247   21.78259686   1     284  C
   25.30642396    3.92471582   21.82892381   1     285  C
   29.55056353    3.54345523   21.83724513   1     286  C
    6.31577721    6.84454135   21.77407462   1     287  C
   10.55799031    6.46739105   21.73914041   1     288  C
   14.80177894    6.09234606   21.72738186   1     289  C
   19.04713698    5.71682069   21.75094772   1     290  C
   23.29313709    5.33920087   21.79417851   1     291  C
   27.53810273    4.95932093   21.82093411   1     292  C
    8.54536652    7.88150440   21.74808356   1     293  C
   12.78819930    7.50510368   21.72738179   1     294  C
   17.03289714    7.12965765   21.73233455   1     295  C
   21.27898089    6.75294853   21.76222858   1     296  C
   25.52485913    6.37416243   21.79404694   1     297  C
   29.76894017    5.99409736   21.80007145   1     298  C
    6.53280809    9.29624786   21.75254535   1     299  C
   10.77471043    8.91883309   21.73406614   1     300  C
   15.01847376    8.54253509   21.72738136   1     301  C
   19.26424008    8.16623032   21.74113158   1     302  C
   23.51077897    7.78838967   21.76662247   1     303  C
   27.75596764    7.40919348   21.78236704   1     304  C
   31.99899702    7.02972341   21.77435214   1     305  C
    8.76179453   10.33335017   21.74091195   1     306  C
   13.00457484    9.95608307   21.73233427   1     307  C
   17.24954284    9.57940296   21.73406584   1     308  C
   21.49600076    9.20203851   21.74737781   1     309  C
   25.74216250    8.82368119   21.76193018   1     310  C
   29.98618815    8.44489097   21.76509222   1     311  C
   10.99120566   11.37019769   21.74113216   1     312  C
   15.23489235   10.99280918   21.73913910   1     313  C
   19.48100965   10.61537913   21.74091155   1     314  C
   23.72743503   10.23740983   21.74616123   1     315  C
   27.97272985    9.85926178   21.75073057   1     316  C
   32.21581245    9.48126057   21.74955963   1     317  C
    8.97828924   12.78505464   21.74737840   1     318  C
   13.22100872   12.40688383   21.75094849   1     319  C
   17.46586227   12.02873504   21.74808258   1     320  C
   21.71233932   11.65079108   21.74257950   1     321  C
   25.95866157   11.27322002   21.73915657   1     322  C
   30.20278067   10.89579383   21.74060569   1     323  C
   34.44492995   10.51803468   21.74258023   1     324  C
   11.20777332   13.82165387   21.76222931   1     325  C
   15.45146106   13.44296333   21.76445293   1     326  C
   19.69734560   13.06429109   21.75254528   1     327  C
   23.94379188   12.68639023   21.73739865   1     328  C
   28.18919633   12.30967490   21.73127962   1     329  C
   32.43235085   11.93272800   21.73739953   1     330  C
   13.43787766   14.85751553   21.78259782   1     331  C
   17.68262019   14.47809795   21.77407326   1     332  C
   21.92902480   14.09965127   21.74955895   1     333  C
   26.17499362   13.72283174   21.72964052   1     334  C
   30.41916504   13.34678668   21.72964029   1     335  C
   34.66140625   12.96984952   21.74616164   1     336  C
   11.42503853   16.27283822   21.79417897   1     337  C
   15.66875446   15.89256969   21.79977545   1     338  C
   19.91433980   15.51318732   21.77435132   1     339  C
   24.16056288   15.13572234   21.74060556   1     340  C
   28.40563438   14.75999496   21.72529061   1     341  C
   32.64875711   14.38424238   21.73915695   1     342  C
   36.89064882   14.00672848   21.76662331   1     343  C
   13.65573502   17.30793545   21.82073485   1     344  C
   17.90040456   16.92738729   21.80684598   1     345  C
   22.14631539   16.54874857   21.76509108   1     346  C
   26.39181371   16.17259776   21.73127994   1     347  C
   30.63589485   15.79771537   21.73128038   1     348  C
   34.87837182   15.42151954   21.76193068   1     349  C
   15.88723043   18.34229380   21.83724802   1     350  C
   20.13249166   17.96228886   21.80007023   1     351  C
   24.37792733   17.58527028   21.75073049   1     352  C
   28.62274510   17.21036967   21.72964138   1     353  C
   32.86624781   16.83545674   21.75073145   1     354  C
   37.10836733   16.45808691   21.79404803   1     355  C
   13.87482555   19.75831899   21.85551593   1     356  C
   18.11936215   19.37672810   21.83724494   1     357  C
   22.36448664   18.99802396   21.78236726   1     358  C
   26.60948519   18.62252491   21.73915684   1     359  C
   30.85355956   18.24847087   21.74060637   1     360  C
   35.09644977   17.87276843   21.78236711   1     361  C
   39.33886763   17.49363940   21.82892463   1     362  C
   16.10692857   20.79240179   21.86568561   1     363  C
   20.35176771   20.41163680   21.82093469   1     364  C
   24.59637022   20.03478847   21.76193008   1     365  C
   28.84076168   19.66086829   21.73740102   1     366  C
   33.08440112   19.28634870   21.76509124   1     367  C
   37.32703522   18.90902771   21.82093468   1     368  C
   18.33943762   21.82654772   21.85585130   1     369  C
   22.58367766   21.44773726   21.79404798   1     370  C
   26.82806081   21.07272615   21.74616149   1     371  C
   31.07206503   20.69907421   21.74955905   1     372  C
   35.31547420   20.32360030   21.80007095   1     373  C
   39.55854896   19.94429962   21.85585111   1     374  C
   16.32755620   23.24250360   21.87652314   1     375  C
   20.57161317   22.86162950   21.82892462   1     376  C
   24.81547620   22.48486680   21.76662308   1     377  C
   29.05963367   22.11115870   21.74258041   1     378  C
   33.30356620   21.73707447   21.77435140   1     379  C
   37.54697926   21.35980267   21.83724548   1     380  C
   41.79074394   20.97866272   21.87652300   1     381  C
    0.81770597    1.16133728   21.87652299   1     382  C
    5.06147068    0.78019732   21.83724545   1     383  C
    9.30488370    0.40292551   21.77435142   1     384  C
   13.54881620    0.02884132   21.74258042   1     385  C
   17.79297371   -0.34486680   21.76662304   1     386  C
   22.03683676   -0.72162949   21.82892465   1     387  C
   26.28089372   -1.10250360   21.87652314   1     388  C
    3.04990090    2.19570039   21.85585107   1     389  C
    7.29297569    1.81639968   21.80007089   1     390  C
   11.53638487    1.44092577   21.74955910   1     391  C
   15.78038909    1.06727385   21.74616147   1     392  C
   20.02477226    0.69226273   21.79404797   1     393  C
   24.26901227    0.31345228   21.85585131   1     394  C
    5.28141465    3.23097228   21.82093461   1     395  C
    9.52404877    2.85365127   21.76509125   1     396  C
   13.76768823    2.47913167   21.73740104   1     397  C
   18.01207967    2.10521149   21.76193007   1     398  C
   22.25668224    1.72836343   21.82093469   1     399  C
   26.50152132    1.34759822   21.86568561   1     400  C
    3.26958226    4.64636057   21.82892461   1     401  C
    7.51200015    4.26723152   21.78236705   1     402  C
   11.75489032    3.89152910   21.74060640   1     403  C
   15.99896471    3.51747508   21.73915684   1     404  C
   20.24396334    3.14197612   21.78236727   1     405  C
   24.48908768    2.76327206   21.83724495   1     406  C
   28.73362431    2.38168100   21.85551594   1     407  C
    5.50008252    5.68191310   21.79404798   1     408  C
    9.74220208    5.30454327   21.75073144   1     409  C
   13.98570481    4.92963034   21.72964137   1     410  C
   18.23052270    4.55472979   21.75073050   1     411  C
   22.47595832    4.17771140   21.80007024   1     412  C
   26.72121933    3.79770622   21.83724803   1     413  C
    7.73007802    6.71848048   21.76193063   1     414  C
   11.97255505    6.34228456   21.73128039   1     415  C
   16.21663621    5.96740215   21.73127994   1     416  C
   20.46213464    5.59125151   21.76509109   1     417  C
   24.70804526    5.21261295   21.80684598   1     418  C
   28.95271471    4.83206455   21.82073488   1     419  C
    5.71780100    8.13327146   21.76662329   1     420  C
    9.95969277    7.75575752   21.73915697   1     421  C
   14.20281552    7.38000500   21.72529061   1     422  C
   18.44788702    7.00427763   21.74060556   1     423  C
   22.69410995    6.62681269   21.77435129   1     424  C
   26.93969529    6.24743033   21.79977545   1     425  C
   31.18341130    5.86716174   21.79417897   1     426  C
    7.94704351    9.17015042   21.74616164   1     427  C
   12.18928483    8.79321329   21.72964029   1     428  C
   16.43345624    8.41716828   21.72964052   1     429  C
   20.67942505    8.04034904   21.74955896   1     430  C
   24.92582965    7.66190222   21.77407322   1     431  C
   29.17057216    7.28248442   21.78259779   1     432  C
   10.17609901   10.20727196   21.73739954   1     433  C
   14.41925351    9.83032509   21.73127961   1     434  C
   18.66465802    9.45361000   21.73739865   1     435  C
   22.91110440    9.07570881   21.75254524   1     436  C
   27.15698875    8.69703665   21.76445294   1     437  C
   31.40067653    8.31834608   21.76222928   1     438  C
    8.16351985   11.62196527   21.74258023   1     439  C
   12.40566914   11.24420613   21.74060571   1     440  C
   16.64978840   10.86678022   21.73915657   1     441  C
   20.89611033   10.48920935   21.74257950   1     442  C
   25.14258755   10.11126526   21.74808257   1     443  C
   29.38744119    9.73311614   21.75094844   1     444  C
   33.63016053    9.35494527   21.74737838   1     445  C
   10.39263735   12.65873937   21.74955965   1     446  C
   14.63571997   12.28073822   21.75073057   1     447  C
   18.88101455   11.90259043   21.74616124   1     448  C
   23.12743998   11.52462130   21.74091154   1     449  C
   27.37355761   11.14719083   21.73913911   1     450  C
   31.61724419   10.76980227   21.74113214   1     451  C
   12.62226173   13.69510902   21.76509225   1     452  C
   16.86628732   13.31631906   21.76193019   1     453  C
   21.11244920   12.93796183   21.74737781   1     454  C
   25.35890715   12.56059715   21.73406584   1     455  C
   29.60387497   12.18391690   21.73233427   1     456  C
   33.84665521   11.80664978   21.74091193   1     457  C
   10.60945277   15.11027651   21.77435216   1     458  C
   14.85248210   14.73080657   21.78236705   1     459  C
   19.09767083   14.35161016   21.76662249   1     460  C
   23.34420974   13.97376999   21.74113157   1     461  C
   27.58997610   13.59746488   21.72738137   1     462  C
   31.83373942   13.22116685   21.73406612   1     463  C
   36.07564173   12.84375211   21.75254537   1     464  C
   12.83950965   16.14590258   21.80007144   1     465  C
   17.08359070   15.76583774   21.79404695   1     466  C
   21.32946883   15.38705173   21.76222858   1     467  C
   25.57555274   15.01034235   21.73233455   1     468  C
   29.82025059   14.63489630   21.72738178   1     469  C
   34.06308331   14.25849565   21.74808357   1     470  C
   15.07034706   17.18067916   21.82093410   1     471  C
   19.31531278   16.80079926   21.79417852   1     472  C
   23.56131308   16.42317942   21.75094772   1     473  C
   27.80667097   16.04765394   21.72738187   1     474  C
   32.05045960   15.67260893   21.73914041   1     475  C
   36.29267267   15.29545866   21.77407465   1     476  C
   13.05788635   18.59654478   21.83724513   1     477  C
   17.30202579   18.21528441   21.82892381   1     478  C
   21.54743967   17.83630771   21.78259687   1     479  C
   25.79288071   17.46021600   21.73913929   1     480  C
   30.03746973   17.08575673   21.73233541   1     481  C
   34.28063971   16.71013319   21.76445357   1     482  C
   38.52271036   16.33149614   21.80684674   1     483  C
   15.28953073   19.63086283   21.85585065   1     484  C
   19.53424223   19.25018918   21.82073514   1     485  C
   23.77926940   18.87284709   21.76445289   1     486  C
   28.02425219   18.49825062   21.73406701   1     487  C
   32.26814209   18.12372065   21.75094863   1     488  C
   36.51070625   17.74675395   21.79977508   1     489  C
   17.52169099   20.66511618   21.85551606   1     490  C
   21.76649413   20.28583068   21.79977548   1     491  C
   26.01122592   19.91025548   21.74808296   1     492  C
   30.25544350   19.53644281   21.74113284   1     493  C
   34.49888581   19.16122069   21.78259663   1     494  C
   38.74146674   18.78240966   21.83724890   1     495  C
   15.50984330   22.08118351   21.87652311   1     496  C
   19.75420744   21.69989757   21.83724898   1     497  C
   23.99839389   21.32265565   21.77407416   1     498  C
   28.24280216   20.94874556   21.74091217   1     499  C
   32.48675164   20.57461864   21.76222889   1     500  C
   36.72993982   20.19776273   21.82073589   1     501  C
   40.97317272   19.81720174   21.86568534   1     502  C
   17.74220014   23.11521901   21.86568573   1     503  C
   21.98614052   22.73590545   21.80684646   1     504  C
   26.23015061   22.36055310   21.75254546   1     505  C
   30.47428769   21.98710825   21.74737796   1     506  C
   34.71817149   21.61205524   21.79417947   1     507  C
   38.96157749   21.23321827   21.85551627   1     508  C

siesta: Program's energy decomposition (eV):
siesta: Ebs     =    -26962.366107
siesta: Eions   =    143338.147527
siesta: Ena     =     31651.624241
siesta: Ekin    =     57733.341500
siesta: Enl     =     -2929.210265
siesta: Eso     =         0.000000
siesta: Edftu   =         0.000000
siesta: DEna    =      3327.541327
siesta: DUscf   =       169.317979
siesta: DUext   =         0.000000
siesta: Ex      =    -27095.969312
siesta: Ec      =     -2576.122633
siesta: Exc     =    -29672.091946
siesta: EbV     =         0.000000
siesta: eta*DQ  =         0.000000
siesta: Emadel  =         0.000000
siesta: Emeta   =         0.000000
siesta: Emolmec =         0.000000
siesta: Ekinion =         0.000000
siesta: Eharris =    -83106.951110
siesta: Etot    =    -83106.952261
siesta: FreeEng =    -83106.952261

siesta: Final energy (eV):
siesta:  Band Struct. =  -26962.366107
siesta:       Kinetic =   57733.341500
siesta:       Hartree = 1341959.877709
siesta:         Edftu =       0.000000
siesta:       Eso     =       0.000000
siesta:    Ext. field =       0.000000
siesta:         Exch. =  -27095.969312
siesta:         Corr. =   -2576.122633
siesta:     Bulk bias =       0.000000
siesta:   Exch.-corr. =  -29672.091946
siesta:  Ion-electron =-2736175.609279
siesta:       Ion-ion = 1283096.857324
siesta:       Ekinion =       0.000000
siesta: D3 dispersion =     -49.327570
siesta:         Total =  -83106.952261
siesta:         Fermi =      -3.951793

siesta: Stress tensor (static) (eV/Ang**3):
siesta:    -0.016231    0.000000    0.000000
siesta:     0.000000   -0.016231   -0.000000
siesta:    -0.000000   -0.000000   -0.002446

siesta: Cell volume =      26623.463814 Ang**3

siesta: Pressure (static):
siesta:                Solid            Molecule  Units
siesta:           0.00012673          0.00012761  Ry/Bohr**3
siesta:           0.01163587          0.01171633  eV/Ang**3
siesta:          18.64272649         18.77163481  kBar
(Free)E+ p_basis*V_orbitals  =      -82800.808108
(Free)Eharris+ p_basis*V_orbitals  =      -82800.806957

siesta: Electric dipole (a.u.)  =    0.000000   -0.000000    0.000000
siesta: Electric dipole (Debye) =    0.000000   -0.000000    0.000000

cite: Please see "Graphene.bib" for an exhaustive BiBTeX file.
cite: Please clearly indicate Siesta version in published work: 5.0.0-alpha-112-g6e4f53aee-dirty
cite: This calculation has made use of the following articles
cite: which are encouraged to be cited in a published work.
        Primary SIESTA paper
          DOI: www.doi.org/10.1088/0953-8984/14/11/302
 
 
>> End of run:  30-NOV-2024  21:57:12
Job completed
