SystemName     Graphene                                                                        
SystemLabel     Graphene                                                                        
MPI.Nprocs.SIESTA        64     # default value
SpinPolarized              F     # default value
NonCollinearSpin              F     # default value
SpinOrbit              F     # default value
#:block? SpinPolarized              F
#:defined? SpinPolarized              F
#:block? NonCollinearSpin              F
#:defined? NonCollinearSpin              F
#:block? SpinOrbit              F
#:defined? SpinOrbit              F
Spin     non-polarized                                                                   
TimeReversalSymmetry              T     # default value
DebugObjects.Node         0     # default value
DebugObjects              F     # default value
XML.Write              F     # default value
timer_report_threshold          0.000000000         # default value
UseParallelTimer              T     # default value
UseTreeTimer              F     # default value
timing-split-scf-steps              F     # default value
use-walltime              F     # default value
alloc_report_level         0     # default value
alloc_report_threshold          0.000000000         # default value
xc.functional     GGA                                                                             
xc.authors     PBE                                                                             
#:block? XC.hybrid              F
#:defined? XC.hybrid              F
#:block? XC.cocktail              F
#:defined? XC.cocktail              F
MM.Cutoff          30.00000000     Bohr     # default value
MM.UnitsEnergy     eV     # default value
MM.UnitsDistance     Ang     # default value
Atom.Debug              F     # default value
WriteIonPlotFiles              F     # default value
Atom.Debug.KB.Generation              F     # default value
KB.New.Reference.Orbitals              F     # default value
user-basis              F     # default value
user-basis-netcdf              F     # default value
#:block? DFTU.proj              F
#:defined? DFTU.proj              F
#:block? LDAU.proj              F
#:defined? LDAU.proj              F
Number_of_species              1
%block Chemical_species_label
 1  6   C
%endblock Chemical_species_label
ReparametrizePseudos              F     # default value
Restricted.Radial.Grid              T     # default value
Rmax.Radial.Grid          0.000000000         # default value
PAO.BasisSize     standard            # default value
PAO.BasisType     split          # default value
PAO.SoftDefault              F     # default value
PAO.SoftInnerRadius         0.9000000000         # default value
PAO.SoftPotential          40.00000000         # default value
PAO.SplitNorm         0.1500000000         # default value
PAO.SplitNormH         -1.000000000         # default value
PAO.Polarization.NonPerturbative              F     # default value
PAO.NonPerturbative.Polarization.Orbitals              F     # default value
PAO.Polarization.NonPerturbative.Fallback              F     # default value
%block PAO.Basis
 C    3      0.99941
  n=2   0   1   E   132.56520     4.52564
      6.00093
      1.00000
  n=2   1   1   E     6.06390     6.06460
      6.71080
      1.00000
  n=3   2   1   E    14.47828     4.32078
      6.22538
      1.00000
%endblock PAO.Basis
LDAU.ProjectorGenerationMethod         2     # default value
DFTU.ProjectorGenerationMethod         2     # default value
LDAU.EnergyShift         0.5000000000E-01 Ry     # default value
DFTU.EnergyShift         0.5000000000E-01 Ry     # default value
LDAU.CutoffNorm         0.9000000000         # default value
DFTU.CutoffNorm         0.9000000000         # default value
PAO.SoftDefault              F     # default value
PAO.SoftInnerRadius         0.9000000000         # default value
PAO.SoftPotential          40.00000000         # default value
LDAU.ThresholdTol         0.1000000000E-01     # default value
DFTU.ThresholdTol         0.1000000000E-01     # default value
LDAU.PopTol         0.1000000000E-02     # default value
DFTU.PopTol         0.1000000000E-02     # default value
LDAU.PotentialShift              F     # default value
DFTU.PotentialShift              F     # default value
LDAU.FirstIteration              F     # default value
DFTU.FirstIteration              F     # default value
FilterCutoff          0.000000000     Ry     # default value
FilterTol          0.000000000     Ry     # default value
spin-orbit-strength          1.000000000         # default value
Use.PSML.KB.Projectors              T     # default value
Use.PSML.Vlocal              T     # default value
PSML.KB.Projectors              T     # default value
PSML.Vlocal              T     # default value
psml.chlocal.build.r0         0.4000000000E-02     # default value
psml.chlocal.build.delta         0.5000000000E-02     # default value
psml.chlocal.build.poly_order_rlin         4     # default value
chlocal-use-charge-cutoff-for-vlocal-fit              F     # default value
psml.chlocal.build.rr1         0.1000000000E-02     # default value
psml.chlocal.build.exp_al          1.012000000         # default value
psml.chlocal.build.poly_order_rofi         7     # default value
PAO.EnergyShift         0.2000000000E-01 Ry     # default value
PAO.SplitTailNorm              F     # default value
PAO.FixSplitTable              F     # default value
PAO.NewSplitCode              F     # default value
PAO.Filter              F     # default value
PAO.Filter              F     # default value
PAO.Filter              F     # default value
PAO.OldStylePolorbs              T     # default value
PAO.SplitTailNorm              F     # default value
PAO.FixSplitTable              F     # default value
PAO.NewSplitCode              F     # default value
Vna.Filter              F     # default value
PCC.Filter              F     # default value
PAO.BasisType     split          # default value
Debug.Elec.Corr              F     # default value
Atom-Setup-Only              F     # default value
UseStructFile              F     # default value
MD.UseStructFile              F     # default value
#:block? LatticeParameters              F
#:block? LatticeVectors              T
%block LatticeVectors
LatticeConstant          1.889726125           Bohr
# above item originally: LatticeConstant          1.000000000     Ang       
      27.6954924130  -1.2300000000   0.0000000000
      14.9129574532  23.3700000000   0.0000000000
       0.0000000000   0.0000000000  40.0000000000
%endblock LatticeVectors
AtomicCoordinatesFormat     Ang                                                                             
NumberOfAtoms            508
#:block? AtomicCoordinatesOrigin              F
#:defined? AtomicCoordinatesOrigin              F
ZM.UnitsLength     Bohr           # default value
ZM.UnitsAngle     rad            # default value
ZM.ForceTolLength         0.1555740000E-02 Ry/Bohr     # default value
ZM.ForceTolAngle         0.3565490000E-02 Ry/rad     # default value
ZM.MaxDisplLength         0.2000000000     Bohr     # default value
ZM.MaxDisplAngle         0.3000000000E-02 rad     # default value
ZM.CalcAllForces              F     # default value
%block AtomicCoordinatesAndAtomicSpecies
 1.4202816622 0.0000000000 18.3139704102 1
 5.6811266488 0.0000000000 18.3068182607 1
 9.9419716354 0.0000000000 18.2510575890 1
 14.2028166221 0.0000000000 18.2801462177 1
 18.4636616087 0.0000000000 18.3111906179 1
 22.7245065953 0.0000000000 18.2992807462 1
 26.9853515819 0.0000000000 18.2727469807 1
 3.5507041555 1.2300000000 18.2833912866 1
 7.8115491421 1.2300000000 18.2539235485 1
 12.0723941288 1.2300000000 18.2819315012 1
 16.3332391154 1.2300000000 18.2979579410 1
 20.5940841020 1.2300000000 18.2907923192 1
 24.8549290886 1.2300000000 18.2684027271 1
 29.1157740752 1.2300000000 18.2639675828 1
 5.6811266488 2.4600000000 18.3103740065 1
 9.9419716354 2.4600000000 18.2999682085 1
 14.2028166221 2.4600000000 18.3053816876 1
 18.4636616087 2.4600000000 18.3135371850 1
 22.7245065953 2.4600000000 18.2846617365 1
 26.9853515819 2.4600000000 18.3017411514 1
 3.5507041555 3.6900000000 18.2617069464 1
 7.8115491421 3.6900000000 18.2787692418 1
 12.0723941288 3.6900000000 18.3102085399 1
 16.3332391154 3.6900000000 18.2859176896 1
 20.5940841020 3.6900000000 18.3012568662 1
 24.8549290886 3.6900000000 18.3154506771 1
 29.1157740752 3.6900000000 18.2760406063 1
 5.6811266488 4.9200000000 18.3096132996 1
 9.9419716354 4.9200000000 18.3110010554 1
 14.2028166221 4.9200000000 18.2882947684 1
 18.4636616087 4.9200000000 18.3057748178 1
 22.7245065953 4.9200000000 18.2947409083 1
 26.9853515819 4.9200000000 18.2976330892 1
 31.2461965685 4.9200000000 18.2844625328 1
 7.8115491421 6.1500000000 18.2802997803 1
 12.0723941288 6.1500000000 18.2810342203 1
 16.3332391154 6.1500000000 18.3133315298 1
 20.5940841020 6.1500000000 18.2519075403 1
 24.8549290886 6.1500000000 18.2412857772 1
 29.1157740752 6.1500000000 18.2676607770 1
 5.6811266488 7.3800000000 18.2624011664 1
 9.9419716354 7.3800000000 18.2651140231 1
 14.2028166221 7.3800000000 18.2644137505 1
 18.4636616087 7.3800000000 18.2894199935 1
 22.7245065953 7.3800000000 18.2800844516 1
 26.9853515819 7.3800000000 18.2855516170 1
 31.2461965685 7.3800000000 18.2863957876 1
 7.8115491421 8.6100000000 18.2834616135 1
 12.0723941288 8.6100000000 18.2661158000 1
 16.3332391154 8.6100000000 18.2804629030 1
 20.5940841020 8.6100000000 18.3053828476 1
 24.8549290886 8.6100000000 18.2625433979 1
 29.1157740752 8.6100000000 18.2892538277 1
 33.3766190619 8.6100000000 18.2781437667 1
 9.9419716354 9.8400000000 18.2739919275 1
 14.2028166221 9.8400000000 18.2853130044 1
 18.4636616087 9.8400000000 18.2957223940 1
 22.7245065953 9.8400000000 18.3152391240 1
 26.9853515819 9.8400000000 18.2901400460 1
 31.2461965685 9.8400000000 18.3056100405 1
 7.8115491421 11.0700000000 18.2694610643 1
 12.0723941288 11.0700000000 18.2863619091 1
 16.3332391154 11.0700000000 18.2696440307 1
 20.5940841020 11.0700000000 18.3002329076 1
 24.8549290886 11.0700000000 18.2880237066 1
 29.1157740752 11.0700000000 18.2845128783 1
 33.3766190619 11.0700000000 18.2974909475 1
 9.9419716354 12.3000000000 18.3065849720 1
 14.2028166221 12.3000000000 18.2575716567 1
 18.4636616087 12.3000000000 18.2287478328 1
 22.7245065953 12.3000000000 18.2818623303 1
 26.9853515819 12.3000000000 18.3048268290 1
 31.2461965685 12.3000000000 18.2740037011 1
 35.5070415552 12.3000000000 18.3005068630 1
 12.0723941288 13.5300000000 18.2765839473 1
 16.3332391154 13.5300000000 18.2749360840 1
 20.5940841020 13.5300000000 18.3093200519 1
 24.8549290886 13.5300000000 18.2535247876 1
 29.1157740752 13.5300000000 18.2638935812 1
 33.3766190619 13.5300000000 18.3125251507 1
 9.9419716354 14.7600000000 18.2598273418 1
 14.2028166221 14.7600000000 18.2895813430 1
 18.4636616087 14.7600000000 18.2918437712 1
 22.7245065953 14.7600000000 18.2597949137 1
 26.9853515819 14.7600000000 18.2423497096 1
 31.2461965685 14.7600000000 18.3112214849 1
 35.5070415552 14.7600000000 18.3000022158 1
 12.0723941288 15.9900000000 18.2795023797 1
 16.3332391154 15.9900000000 18.2889938170 1
 20.5940841020 15.9900000000 18.2838405784 1
 24.8549290886 15.9900000000 18.3147575714 1
 29.1157740752 15.9900000000 18.2769859473 1
 33.3766190619 15.9900000000 18.3002134588 1
 37.6374640485 15.9900000000 18.2630013805 1
 14.2028166221 17.2200000000 18.2468093034 1
 18.4636616087 17.2200000000 18.2773095345 1
 22.7245065953 17.2200000000 18.2997543437 1
 26.9853515819 17.2200000000 18.3009590323 1
 31.2461965685 17.2200000000 18.3090789166 1
 35.5070415552 17.2200000000 18.2958945750 1
 12.0723941288 18.4500000000 18.2982023031 1
 16.3332391154 18.4500000000 18.2900288507 1
 20.5940841020 18.4500000000 18.2609460532 1
 24.8549290886 18.4500000000 18.2847514423 1
 29.1157740752 18.4500000000 18.2985171600 1
 33.3766190619 18.4500000000 18.2779087801 1
 37.6374640485 18.4500000000 18.3201159924 1
 14.2028166221 19.6800000000 18.2987131082 1
 18.4636616087 19.6800000000 18.2609268915 1
 22.7245065953 19.6800000000 18.3197461217 1
 26.9853515819 19.6800000000 18.2581630152 1
 31.2461965685 19.6800000000 18.2912162366 1
 35.5070415552 19.6800000000 18.2749647898 1
 39.7678865418 19.6800000000 18.2744773917 1
 16.3332391154 20.9100000000 18.2863869720 1
 20.5940841020 20.9100000000 18.2686389723 1
 24.8549290886 20.9100000000 18.2793858844 1
 29.1157740752 20.9100000000 18.2603306692 1
 33.3766190619 20.9100000000 18.2886961629 1
 37.6374640485 20.9100000000 18.3005794140 1
 14.2028166221 22.1400000000 18.2392300098 1
 18.4636616087 22.1400000000 18.2609053669 1
 22.7245065953 22.1400000000 18.3002907657 1
 26.9853515819 22.1400000000 18.2408446918 1
 31.2461965685 22.1400000000 18.3193974827 1
 35.5070415552 22.1400000000 18.2910690292 1
 39.7678865418 22.1400000000 18.2610285539 1
 2.8405633244 0.0000000000 18.2984293650 1
 7.1014083110 0.0000000000 18.2655971080 1
 11.3622532977 0.0000000000 18.2993863999 1
 15.6230982843 0.0000000000 18.2701968948 1
 19.8839432709 0.0000000000 18.2997467661 1
 24.1447882575 0.0000000000 18.3237725418 1
 28.4056332441 0.0000000000 18.2938326342 1
 4.9709858177 1.2300000000 18.3223679260 1
 9.2318308043 1.2300000000 18.2981498801 1
 13.4926757910 1.2300000000 18.2622637971 1
 17.7535207776 1.2300000000 18.2470436013 1
 22.0143657642 1.2300000000 18.2081775926 1
 26.2752107508 1.2300000000 18.2765641816 1
 2.8405633244 2.4600000000 18.2678392490 1
 7.1014083110 2.4600000000 18.2668938602 1
 11.3622532977 2.4600000000 18.2834667258 1
 15.6230982843 2.4600000000 18.2882180973 1
 19.8839432709 2.4600000000 18.2690193391 1
 24.1447882575 2.4600000000 18.3022835928 1
 28.4056332441 2.4600000000 18.3189303354 1
 4.9709858177 3.6900000000 18.2782247670 1
 9.2318308043 3.6900000000 18.2882613270 1
 13.4926757910 3.6900000000 18.2948635001 1
 17.7535207776 3.6900000000 18.2823466896 1
 22.0143657642 3.6900000000 18.3010532710 1
 26.2752107508 3.6900000000 18.2973220516 1
 30.5360557374 3.6900000000 18.2721344877 1
 7.1014083110 4.9200000000 18.2912046244 1
 11.3622532977 4.9200000000 18.2782137613 1
 15.6230982843 4.9200000000 18.2872786559 1
 19.8839432709 4.9200000000 18.3091390833 1
 24.1447882575 4.9200000000 18.2983057172 1
 28.4056332441 4.9200000000 18.2928363011 1
 4.9709858177 6.1500000000 18.2997783903 1
 9.2318308043 6.1500000000 18.3037270684 1
 13.4926757910 6.1500000000 18.2822281865 1
 17.7535207776 6.1500000000 18.2878809361 1
 22.0143657642 6.1500000000 18.2831925977 1
 26.2752107508 6.1500000000 18.2862332932 1
 30.5360557374 6.1500000000 18.2688604477 1
 7.1014083110 7.3800000000 18.2699050790 1
 11.3622532977 7.3800000000 18.3004852937 1
 15.6230982843 7.3800000000 18.2851266452 1
 19.8839432709 7.3800000000 18.2736671675 1
 24.1447882575 7.3800000000 18.2770277121 1
 28.4056332441 7.3800000000 18.2970406509 1
 32.6664782307 7.3800000000 18.3072852177 1
 9.2318308043 8.6100000000 18.2888604173 1
 13.4926757910 8.6100000000 18.2971387071 1
 17.7535207776 8.6100000000 18.3107500750 1
 22.0143657642 8.6100000000 18.2897125653 1
 26.2752107508 8.6100000000 18.2735335662 1
 30.5360557374 8.6100000000 18.2650524875 1
 7.1014083110 9.8400000000 18.2949366183 1
 11.3622532977 9.8400000000 18.2670530532 1
 15.6230982843 9.8400000000 18.2659011902 1
 19.8839432709 9.8400000000 18.2633497709 1
 24.1447882575 9.8400000000 18.2179157368 1
 28.4056332441 9.8400000000 18.2716018983 1
 32.6664782307 9.8400000000 18.2818521284 1
 9.2318308043 11.0700000000 18.3070500046 1
 13.4926757910 11.0700000000 18.3189419858 1
 17.7535207776 11.0700000000 18.2539204484 1
 22.0143657642 11.0700000000 18.3157802487 1
 26.2752107508 11.0700000000 18.3169682368 1
 30.5360557374 11.0700000000 18.2817542395 1
 34.7969007241 11.0700000000 18.2900484003 1
 11.3622532977 12.3000000000 18.2629446825 1
 15.6230982843 12.3000000000 18.3022819574 1
 19.8839432709 12.3000000000 18.3140523292 1
 24.1447882575 12.3000000000 18.2962379198 1
 28.4056332441 12.3000000000 18.2898913403 1
 32.6664782307 12.3000000000 18.2607933751 1
 9.2318308043 13.5300000000 18.2837235903 1
 13.4926757910 13.5300000000 18.2931267624 1
 17.7535207776 13.5300000000 18.2656809553 1
 22.0143657642 13.5300000000 18.3154926113 1
 26.2752107508 13.5300000000 18.3146462731 1
 30.5360557374 13.5300000000 18.2691376728 1
 34.7969007241 13.5300000000 18.3057328574 1
 11.3622532977 14.7600000000 18.2585948718 1
 15.6230982843 14.7600000000 18.3003739686 1
 19.8839432709 14.7600000000 18.2906025010 1
 24.1447882575 14.7600000000 18.2704856988 1
 28.4056332441 14.7600000000 18.3239795815 1
 32.6664782307 14.7600000000 18.3119809061 1
 36.9273232174 14.7600000000 18.2713531124 1
 13.4926757910 15.9900000000 18.2677626777 1
 17.7535207776 15.9900000000 18.2978545192 1
 22.0143657642 15.9900000000 18.2614991096 1
 26.2752107508 15.9900000000 18.2768245852 1
 30.5360557374 15.9900000000 18.2357749823 1
 34.7969007241 15.9900000000 18.3064405835 1
 11.3622532977 17.2200000000 18.2848108415 1
 15.6230982843 17.2200000000 18.2782774970 1
 19.8839432709 17.2200000000 18.2653828359 1
 24.1447882575 17.2200000000 18.2697453541 1
 28.4056332441 17.2200000000 18.2971369542 1
 32.6664782307 17.2200000000 18.2939142235 1
 36.9273232174 17.2200000000 18.3258196085 1
 13.4926757910 18.4500000000 18.2730992193 1
 17.7535207776 18.4500000000 18.2786874385 1
 22.0143657642 18.4500000000 18.2477347355 1
 26.2752107508 18.4500000000 18.2588289989 1
 30.5360557374 18.4500000000 18.2876701317 1
 34.7969007241 18.4500000000 18.2999344022 1
 39.0577457107 18.4500000000 18.2645734264 1
 15.6230982843 19.6800000000 18.2846737839 1
 19.8839432709 19.6800000000 18.3051642327 1
 24.1447882575 19.6800000000 18.3011051021 1
 28.4056332441 19.6800000000 18.2927729116 1
 32.6664782307 19.6800000000 18.2846155156 1
 36.9273232174 19.6800000000 18.2792120526 1
 13.4926757910 20.9100000000 18.3158505816 1
 17.7535207776 20.9100000000 18.2760885211 1
 22.0143657642 20.9100000000 18.2952380341 1
 26.2752107508 20.9100000000 18.2978322983 1
 30.5360557374 20.9100000000 18.3196296337 1
 34.7969007241 20.9100000000 18.2972758381 1
 39.0577457107 20.9100000000 18.2914925341 1
 15.6230982843 22.1400000000 18.2905556140 1
 19.8839432709 22.1400000000 18.2851660307 1
 24.1447882575 22.1400000000 18.2770898656 1
 28.4056332441 22.1400000000 18.3120882610 1
 32.6664782307 22.1400000000 18.2864381327 1
 36.9273232174 22.1400000000 18.2882150945 1
 41.1881682040 22.1400000000 18.2773875963 1
 3.6457623770 0.9103937008 21.7595530222 1
 7.8898323834 0.5326771654 21.6912508756 1
 12.1339023897 0.1549606299 21.6884774739 1
 16.3779723961 -0.2227559055 21.7381883040 1
 20.6220424024 -0.6004724409 21.7288041424 1
 24.8661124088 -0.9781889764 21.7261477605 1
 1.6327647455 2.3244094488 21.6744012083 1
 5.8768347519 1.9466929134 21.7097848278 1
 10.1209047582 1.5689763780 21.7050451512 1
 14.3649747646 1.1912598425 21.7373248702 1
 18.6090447710 0.8135433071 21.6857319379 1
 22.8531147773 0.4358267717 21.7074136470 1
 27.0971847837 0.0581102362 21.6969806527 1
 3.8638371204 3.3607086614 21.7161144976 1
 8.1079071268 2.9829921260 21.7083164628 1
 12.3519771331 2.6052755906 21.7039494813 1
 16.5960471395 2.2275590551 21.7018819564 1
 20.8401171458 1.8498425197 21.7197521323 1
 25.0841871522 1.4721259843 21.7089764622 1
 6.0949094953 4.3970078740 21.7118864267 1
 10.3389795017 4.0192913386 21.7417802623 1
 14.5830495080 3.6415748031 21.7269714090 1
 18.8271195144 3.2638582677 21.6784667421 1
 23.0711895207 2.8861417323 21.7188395878 1
 27.3152595271 2.5084251969 21.7186948380 1
 4.0819118638 5.8110236220 21.6898335939 1
 8.3259818702 5.4333070866 21.7247024490 1
 12.5700518765 5.0555905512 21.7612389172 1
 16.8141218829 4.6778740157 21.7212312453 1
 21.0581918893 4.3001574803 21.7203447405 1
 25.3022618956 3.9224409449 21.7072560187 1
 29.5463319020 3.5447244094 21.7162358234 1
 6.3129842387 6.8473228346 21.7491324831 1
 10.5570542451 6.4696062992 21.7184462719 1
 14.8011242514 6.0918897638 21.7039756926 1
 19.0451942578 5.7141732283 21.7227424942 1
 23.2892642641 5.3364566929 21.7222689964 1
 27.5333342705 4.9587401575 21.7398116759 1
 8.5440566136 7.8836220472 21.7656877675 1
 12.7881266199 7.5059055118 21.6974716524 1
 17.0321966263 7.1281889764 21.7258557509 1
 21.2762666327 6.7504724409 21.7103953451 1
 25.5203366390 6.3727559055 21.7175482754 1
 29.7644066454 5.9950393701 21.7213572712 1
 6.5310589821 9.2976377953 21.7121579215 1
 10.7751289885 8.9199212598 21.7047735804 1
 15.0191989948 8.5422047244 21.7384542056 1
 19.2632690012 8.1644881890 21.7019654081 1
 23.5073390075 7.7867716535 21.7407158632 1
 27.7514090139 7.4090551181 21.6879700928 1
 31.9954790203 7.0313385827 21.7224568845 1
 8.7621313570 10.3339370079 21.7047712975 1
 13.0062013634 9.9562204724 21.7061476808 1
 17.2502713697 9.5785039370 21.6941325295 1
 21.4943413761 9.2007874016 21.7364466298 1
 25.7384113824 8.8230708661 21.6966511812 1
 29.9824813888 8.4453543307 21.7572054703 1
 10.9932037319 11.3702362205 21.7234122305 1
 15.2372737382 10.9925196850 21.7402669930 1
 19.4813437446 10.6148031496 21.7365557724 1
 23.7254137510 10.2370866142 21.6903810599 1
 27.9694837573 9.8593700787 21.7321473092 1
 32.2135537637 9.4816535433 21.6802833859 1
 8.9802061004 12.7842519685 21.7120920242 1
 13.2242761068 12.4065354331 21.7145369277 1
 17.4683461131 12.0288188976 21.7816732828 1
 21.7124161195 11.6511023622 21.7183325391 1
 25.9564861258 11.2733858268 21.7124644526 1
 30.2005561322 10.8956692913 21.6872745380 1
 34.4446261386 10.5179527559 21.7138020512 1
 11.2112784753 13.8205511811 21.7244763258 1
 15.4553484816 13.4428346457 21.6983412828 1
 19.6994184880 13.0651181102 21.6865821517 1
 23.9434884944 12.6874015748 21.6871849000 1
 28.1875585007 12.3096850394 21.6943010289 1
 32.4316285071 11.9319685039 21.7394557960 1
 13.4423508502 14.8568503937 21.7207655500 1
 17.6864208565 14.4791338583 21.7136000104 1
 21.9304908629 14.1014173228 21.7140981071 1
 26.1745608692 13.7237007874 21.7320827018 1
 30.4186308756 13.3459842520 21.7142150352 1
 34.6627008820 12.9682677165 21.6856682319 1
 11.4293532187 16.2708661417 21.7080193949 1
 15.6734232251 15.8931496063 21.6886868390 1
 19.9174932314 15.5154330709 21.7077032522 1
 24.1615632378 15.1377165354 21.7538962551 1
 28.4056332441 14.7600000000 21.6780789719 1
 32.6497032505 14.3822834646 21.7350746733 1
 36.8937732568 14.0045669291 21.6911971773 1
 13.6604255936 17.3071653543 21.7093609226 1
 17.9044955999 16.9294488189 21.6893706645 1
 22.1485656063 16.5517322835 21.6988287118 1
 26.3926356127 16.1740157480 21.7238511301 1
 30.6367056190 15.7962992126 21.7144145480 1
 34.8807756254 15.4185826772 21.7340769821 1
 15.8914979685 18.3434645669 21.7168299520 1
 20.1355679748 17.9657480315 21.6901024759 1
 24.3796379812 17.5880314961 21.7210252319 1
 28.6237079875 17.2103149606 21.7275706856 1
 32.8677779939 16.8325984252 21.7063082544 1
 37.1118480003 16.4548818898 21.7098218179 1
 13.8785003370 19.7574803150 21.7047997766 1
 18.1225703434 19.3797637795 21.7053386803 1
 22.3666403497 19.0020472441 21.7160175773 1
 26.6107103561 18.6243307087 21.6757432281 1
 30.8547803624 18.2466141732 21.7242752074 1
 35.0988503688 17.8688976378 21.7094555508 1
 39.3429203751 17.4911811024 21.7163174848 1
 16.1095727119 20.7937795276 21.6683446461 1
 20.3536427182 20.4160629921 21.6840344717 1
 24.5977127246 20.0383464567 21.7168128995 1
 28.8417827309 19.6606299213 21.7175781217 1
 33.0858527373 19.2829133858 21.7577995771 1
 37.3299227437 18.9051968504 21.6896434595 1
 18.3406450868 21.8300787402 21.7564178802 1
 22.5847150931 21.4523622047 21.7147329928 1
 26.8287850995 21.0746456693 21.6968893671 1
 31.0728551058 20.6969291339 21.7303874284 1
 35.3169251122 20.3192125984 21.7313289999 1
 39.5609951185 19.9414960630 21.7149269494 1
 16.3276474553 23.2440944882 21.7260726007 1
 20.5717174616 22.8663779528 21.6847464081 1
 24.8157874680 22.4886614173 21.6843583780 1
 29.0598574744 22.1109448819 21.7149257765 1
 33.3039274807 21.7332283465 21.7260091472 1
 37.5479974871 21.3555118110 21.7126455829 1
 41.7920674934 20.9777952756 21.6959598707 1
 0.8163823728 1.1622047244 21.6942112783 1
 5.0604523791 0.7844881890 21.6961901267 1
 9.3045223855 0.4067716535 21.7343663261 1
 13.5485923918 0.0290551181 21.7209863623 1
 17.7926623982 -0.3486614173 21.6942550161 1
 22.0367324046 -0.7263779528 21.6790190156 1
 26.2808024109 -1.1040944882 21.6980928589 1
 3.0474547476 2.1985039370 21.7181727494 1
 7.2915247540 1.8207874016 21.6907287143 1
 11.5355947604 1.4430708661 21.7147852732 1
 15.7796647667 1.0653543307 21.7440149574 1
 20.0237347731 0.6876377953 21.7215343234 1
 24.2678047794 0.3099212598 21.7045119441 1
 5.2785271225 3.2348031496 21.7299207207 1
 9.5225971289 2.8570866142 21.7014018849 1
 13.7666671352 2.4793700787 21.6903286485 1
 18.0107371416 2.1016535433 21.6958288765 1
 22.2548071480 1.7239370079 21.7529356067 1
 26.4988771543 1.3462204724 21.7151391099 1
 3.2655294911 4.6488188976 21.7154227342 1
 7.5095994974 4.2711023622 21.7262560683 1
 11.7536695038 3.8933858268 21.7161374298 1
 15.9977395101 3.5156692913 21.7458830382 1
 20.2418095165 3.1379527559 21.7284264072 1
 24.4858795228 2.7602362205 21.7018790875 1
 28.7299495292 2.3825196850 21.7284865505 1
 5.4966018659 5.6851181102 21.7223551860 1
 9.7406718723 5.3074015748 21.7263126186 1
 13.9847418787 4.9296850394 21.7263590115 1
 18.2288118850 4.5519685039 21.7272170645 1
 22.4728818914 4.1742519685 21.7141778546 1
 26.7169518977 3.7965354331 21.7410940469 1
 7.7276742408 6.7214173228 21.7454740349 1
 11.9717442472 6.3437007874 21.6914725390 1
 16.2158142535 5.9659842520 21.7324339277 1
 20.4598842599 5.5882677165 21.7174550846 1
 24.7039542663 5.2105511811 21.7119441896 1
 28.9480242726 4.8328346457 21.6995039075 1
 5.7146766094 8.1354330709 21.6941622875 1
 9.9587466157 7.7577165354 21.7368000544 1
 14.2028166221 7.3800000000 21.7114892051 1
 18.4468866284 7.0022834646 21.6911245762 1
 22.6909566348 6.6245669291 21.7124193004 1
 26.9350266411 6.2468503937 21.7333350761 1
 31.1790966475 5.8691338583 21.7108467926 1
 7.9457489842 9.1717322835 21.6980044899 1
 12.1898189906 8.7940157480 21.7168275276 1
 16.4338889969 8.4162992126 21.7104601879 1
 20.6779590033 8.0385826772 21.6999279550 1
 24.9220290097 7.6608661417 21.7362714783 1
 29.1660990160 7.2831496063 21.6948239867 1
 10.1768213591 10.2080314961 21.7028642962 1
 14.4208913655 9.8303149606 21.7170308615 1
 18.6649613718 9.4525984252 21.7140933962 1
 22.9090313782 9.0748818898 21.7084685888 1
 27.1531013845 8.6971653543 21.7246463170 1
 31.3971713909 8.3194488189 21.7326677931 1
 8.1638237276 11.6220472441 21.7514795810 1
 12.4078937340 11.2443307087 21.6793929794 1
 16.6519637404 10.8666141732 21.7186418772 1
 20.8960337467 10.4888976378 21.6794063485 1
 25.1401037531 10.1111811024 21.7297514279 1
 29.3841737594 9.7334645669 21.6964292670 1
 33.6282437658 9.3557480315 21.7029341154 1
 10.3948961025 12.6583464567 21.7102239812 1
 14.6389661089 12.2806299213 21.7169880258 1
 18.8830361152 11.9029133858 21.6949226969 1
 23.1271061216 11.5251968504 21.6806267968 1
 27.3711761280 11.1474803150 21.7156685139 1
 31.6152461343 10.7697637795 21.6841597303 1
 12.6259684774 13.6946456693 21.7108771516 1
 16.8700384838 13.3169291339 21.7197885798 1
 21.1141084901 12.9392125984 21.7100969909 1
 25.3581784965 12.5614960630 21.7053881917 1
 29.6022485028 12.1837795276 21.7363182804 1
 33.8463185092 11.8060629921 21.7088629648 1
 10.6129708459 15.1086614173 21.7446183349 1
 14.8570408523 14.7309448819 21.6814794814 1
 19.1011108587 14.3532283465 21.7228885306 1
 23.3451808650 13.9755118110 21.6976552516 1
 27.5892508714 13.5977952756 21.7095260039 1
 31.8333208777 13.2200787402 21.7381176430 1
 36.0773908841 12.8423622047 21.7001026683 1
 12.8440432208 16.1449606299 21.7228771945 1
 17.0881132272 15.7672440945 21.7112392863 1
 21.3321832335 15.3895275591 21.7251571864 1
 25.5762532399 15.0118110236 21.7270283110 1
 29.8203232462 14.6340944882 21.7044498023 1
 34.0643932526 14.2563779528 21.7194380019 1
 15.0751155957 17.1812598425 21.7103440152 1
 19.3191856021 16.8035433071 21.6985352169 1
 23.5632556084 16.4258267717 21.7114212818 1
 27.8073256148 16.0481102362 21.7046337237 1
 32.0513956211 15.6703937008 21.7294524456 1
 36.2954656275 15.2926771654 21.6855025013 1
 13.0621179642 18.5952755906 21.7005531706 1
 17.3061879706 18.2175590551 21.7004573790 1
 21.5502579769 17.8398425197 21.7550027689 1
 25.7943279833 17.4621259843 21.7446524658 1
 30.0383979897 17.0844094488 21.7255476633 1
 34.2824679960 16.7066929134 21.7041824299 1
 38.5265380024 16.3289763780 21.6998561330 1
 15.2931903391 19.6315748031 21.7370670762 1
 19.5372603455 19.2538582677 21.7336268659 1
 23.7813303518 18.8761417323 21.7065013471 1
 28.0254003582 18.4984251969 21.7084351190 1
 32.2694703645 18.1207086614 21.7143328456 1
 36.5135403709 17.7429921260 21.6782186922 1
 17.5242627140 20.6678740157 21.7273290571 1
 21.7683327204 20.2901574803 21.7618099374 1
 26.0124027267 19.9124409449 21.6921803686 1
 30.2564727331 19.5347244094 21.7006367237 1
 34.5005427394 19.1570078740 21.6828030255 1
 38.7446127458 18.7792913386 21.7087661542 1
 15.5112650825 22.0818897638 21.7121408004 1
 19.7553350889 21.7041732283 21.7134901084 1
 23.9994050952 21.3264566929 21.7344632981 1
 28.2434751016 20.9487401575 21.6852566841 1
 32.4875451080 20.5710236220 21.6924853207 1
 36.7316151143 20.1933070866 21.7130807963 1
 40.9756851207 19.8155905512 21.7016801684 1
 17.7423374574 23.1181889764 21.7082028334 1
 21.9864074638 22.7404724409 21.7340589137 1
 26.2304774701 22.3627559055 21.7350939442 1
 30.4745474765 21.9850393701 21.7414879137 1
 34.7186174828 21.6073228346 21.6935366596 1
 38.9626874892 21.2296062992 21.7200444484 1
%endblock AtomicCoordinatesAndAtomicSpecies
MD.UseSaveXV              T
MD.UseSaveZM              F     # default value
WriteCoorInitial              T     # default value
MD.TypeOfRun     CG                                                                              
MD.TypeOfRun     CG                                                                              
MD.InitialTimeStep         1     # default value
MD.FinalTimeStep         1     # default value
MD.TypeOfRun     CG                                                                              
MaxBondDistance          6.000000000     Bohr     # default value
Output-Structure-Only              F     # default value
WriteCoorXmol              F     # default value
#:physical? MaxWalltime              F
MaxWalltime         0.1797693135+309     # default value
#:physical? MaxWalltime.Slack              F
MaxWalltime.Slack          5.000000000         # default value
HSetupOnly              F     # default value
LongOutput              F     # default value
WriteDenchar              F     # default value
WriteMullikenPop         0     # default value
WriteOrbMom              F     # default value
WriteHirshfeldPop              F     # default value
WriteVoronoiPop              F     # default value
PartialChargesAtEveryGeometry              F     # default value
PartialChargesAtEveryScfStep              F     # default value
MeshCutoff          300.0000000             Ry
# above item originally: MeshCutoff          300.0000000     Ry        
NetCharge          0.000000000         # default value
MinSCFIterations              3
MaxSCFIterations            300
SCF.MustConverge              T     # default value
#:block? TS.MixH              F
#:defined? TS.MixH              F
#:block? MixHamiltonian              F
#:defined? MixHamiltonian              F
#:block? MixCharge              F
#:defined? MixCharge              F
TS.MixH              T     # default value
MixHamiltonian              T     # default value
MixCharge              F     # default value
SCF.Mix     Hamiltonian     # default value
Compat-pre-v4-DM-H              F     # default value
SCF.MixAfterConvergence              F     # default value
SCF.Recompute-H-After-Scf              F     # default value
DM.NumberPulay         0     # default value
DM.NumberBroyden         0     # default value
DM.FIRE.Mixing              F     # default value
DM.MixSCF1              T     # default value
SCF.Mix.First              T
SCF.Mix.First.Force              F     # default value
DM.PulayOnFile              F     # default value
DM.MixingWeight         0.2500000000         # default value
DM.OccupancyTolerance         0.1000000000E-11     # default value
DM.NumberKick         0     # default value
DM.KickMixingWeight         0.5000000000         # default value
DM.RequireHarrisConvergence              F     # default value
SCF.Harris.Converge              F     # default value
DM.HarrisTolerance         0.7349864435E-05 Ry     # default value
SCF.Harris.Tolerance         0.7349864435E-05 Ry     # default value
SCF.DM.Converge              T     # default value
DM.Tolerance         0.1000000000E-03     # default value
SCF.DM.Tolerance         0.1000000000E-03
SCF.EDM.Converge              F     # default value
SCF.EDM.Tolerance         0.7349864435E-04 Ry     # default value
SCF.H.Converge              T     # default value
SCF.H.Tolerance         0.7349864435E-04 Ry     # default value
DM.RequireEnergyConvergence              F     # default value
SCF.FreeE.Converge              F     # default value
DM.EnergyTolerance         0.7349864435E-05 Ry     # default value
SCF.FreeE.Tolerance         0.7349864435E-05 Ry     # default value
MonitorForcesInSCF              F     # default value
SCF.MonitorForces              F     # default value
DFTD3              T
UseSaveData              F     # default value
DM.UseSaveDM              T
NeglNonOverlapInt              F     # default value
SolutionMethod     diagon                                                                          
ElectronicTemperature         0.1900000000E-02 Ry     # default value
FixSpin              F     # default value
Spin.Fix              F     # default value
ON.MaxNumIter      1000     # default value
ON.etol         0.1000000000E-07     # default value
ON.eta          0.000000000     Ry     # default value
ON.eta_alpha          0.000000000     Ry     # default value
ON.eta_beta          0.000000000     Ry     # default value
On.RcLWF          9.500000000     Bohr     # default value
ON.UseSaveLWF              F     # default value
ON.functional     kim     # default value
ON.ChemicalPotentialUse              F     # default value
ON.ChemicalPotential              F     # default value
ON.ChemicalPotentialRc          9.500000000     Bohr     # default value
ON.ChemicalPotentialTemperature         0.5000000000E-01 Ry     # default value
ON.ChemicalPotentialOrder       100     # default value
TDED.WF.Initialize              F     # default value
TDED.Saverho              F     # default value
TDED.Nsaverho       100     # default value
TDED.Write.Etot              T     # default value
TDED.Write.Eig              F     # default value
TDED.Write.Dipole              F     # default value
TDED.Extrapolate              F     # default value
TDED.TimeStep         0.1000000000E-02 fs     # default value
TDED.Nsteps         1     # default value
TDED.Extrapolate.Substeps         3     # default value
TDED.Inverse.Linear              T     # default value
TDED.WF.Save              F     # default value
MD.VariableCell              F
compat-pre-v4-dynamics              F     # default value
MD.TypeOfRun     CG                                                                              
MD.UseSaveCG              F     # default value
Optim.Broyden              F     # default value
#:block? Optim.Broyden              F
#:defined? Optim.Broyden              F
MD.NumCGsteps            200
MD.Steps       200     # default value
MD.MaxCGDispl         0.5000000000           Bohr
# above item originally: MD.MaxCGDispl         0.5000000000     Bohr      
MD.MaxDispl         0.5000000000     Bohr     # default value
MD.MaxForceTol         0.3889380762E-03    Ry/Bohr
# above item originally: MD.MaxForceTol         0.1000000000E-01 eV/Ang    
MD.MaxStressTol         0.6797730000E-04 Ry/Bohr**3     # default value
GeometryMustConverge              F     # default value
MD.InitialTimeStep         1     # default value
#:block? MD.Steps              F
#:defined? MD.Steps              F
MD.FinalTimeStep         1     # default value
MD.LengthTimeStep          1.000000000     fs     # default value
MD.Quench              F     # default value
MD.FireQuench              F     # default value
MD.InitialTemperature          0.000000000     K     # default value
MD.TargetTemperature          0.000000000     K     # default value
#:block? MD.TargetPressure              F
#:defined? MD.TargetPressure              F
MD.TargetPressure          0.000000000     Ry/Bohr**3     # default value
Target.Pressure          0.000000000     Ry/Bohr**3     # default value
MD.NoseMass          100.0000000     Ry*fs**2     # default value
MD.ParrinelloRahmanMass          100.0000000     Ry*fs**2     # default value
MD.AnnealOption     TemperatureAndPressure     # default value
MD.TauRelax          100.0000000     fs     # default value
MD.BulkModulus         0.6797730000E-02 Ry/Bohr**3     # default value
MD.FCDispl         0.4000000000E-01 Bohr     # default value
MD.FCfirst         1     # default value
MD.FClast       508     # default value
UseSpatialDecomposition              F     # default value
UseDomainDecomposition              F     # default value
SCF.Mix.Spin     all     # default value
Mixer.Debug              F     # default value
Mixer.Debug.MPI              F     # default value
DM.NumberPulay         2     # default value
DM.NumberBroyden         0     # default value
DM.MixingWeight         0.2500000000         # default value
DM.NumberKick         0     # default value
DM.KickMixingWeight         0.5000000000         # default value
SCF.LinearMixingAfterPulay              F     # default value
SCF.MixingWeightAfterPulay         0.2500000000         # default value
SCF.Mixer.History             12
SCF.Mixer.Weight         0.1000000000    
SCF.Mixer.Kick         0     # default value
SCF.Mixer.Kick.Weight         0.5000000000         # default value
SCF.Mixer.Restart         0     # default value
SCF.Mixer.Restart.Save         1     # default value
SCF.Mixer.Method     Pulay     # default value
SCF.Mixer.Variant     original     # default value
SCF.Mixer.Linear.After        -1     # default value
SCF.Mixer.Linear.After.Weight         0.2500000000         # default value
#:block? ChargeGeometries              F
#:defined? ChargeGeometries              F
#:block? ChargeGeometries              F
#:defined? ChargeGeometries              F
BulkBias.V          0.000000000     Ry     # default value
BulkBias.Voltage          0.000000000     Ry     # default value
BulkBias.Tolerance         0.1000000000E-14     # default value
BulkBias.Current              T     # default value
Harris_functional              F     # default value
ForceAuxCell              F     # default value
#:block? Optim.Broyden.History.Steps              F
#:defined? Optim.Broyden.History.Steps              F
#:block? Optim.Broyden.Cycle.On.Maxit              F
#:defined? Optim.Broyden.Cycle.On.Maxit              F
#:block? Optim.Broyden.Variable.Weight              F
#:defined? Optim.Broyden.Variable.Weight              F
#:block? Optim.Broyden.Debug              F
#:defined? Optim.Broyden.Debug              F
#:block? Optim.Broyden.Initial.Inverse.Jacobian              F
#:defined? Optim.Broyden.Initial.Inverse.Jacobian              F
Write.Kpoints              F     # default value
Write.Forces              F     # default value
Write.DM              T     # default value
Write.DM.End.Of.Cycle              T     # default value
Write.H              F     # default value
Write.H.End.Of.Cycle              F     # default value
Write.DM.NetCDF              F     # default value
WriteDM.History.NetCDF              F     # default value
WriteDMHS.NetCDF              F     # default value
WriteDMHS.History.NetCDF              F     # default value
SCF.Read.Charge.NetCDF              F     # default value
SCF.Read.Deformation.Charge.NetCDF              F     # default value
Write.TSHS.History              F     # default value
SaveInitialChargeDensity              F     # default value
AnalyzeChargeDensityOnly              F     # default value
UseNewDiagk              F     # default value
Diag.WFS.Cache     none     # default value
WriteBands              F     # default value
WriteKbands              F     # default value
WriteEigenvalues              F     # default value
WriteCoorStep              F     # default value
WriteMDhistory              F     # default value
WriteMDXmol              T     # default value
WriteOrbitalIndex              T     # default value
Write.Graphviz     none     # default value
WriteCoorStep              F     # default value
SaveHS              F     # default value
ReInitialiseDM              T     # default value
DM.AllowReuse              T     # default value
DM.AllowExtrapolation              T     # default value
DM.History.Depth         1     # default value
DM.NormalizationTolerance         0.1000000000E-04     # default value
DM.NormalizeDuringSCF              T     # default value
MullikenInSCF              F     # default value
SpinInSCF              F     # default value
WarningMinimumAtomicDistance          1.000000000     Bohr     # default value
BornCharge              F     # default value
ChangeKgridInMD              F     # default value
MD.RelaxCellOnly              F     # default value
MD.RemoveIntraMolecularPressure              F     # default value
COOP.Write              F     # default value
SaveRho              F     # default value
SaveDeltaRho              F     # default value
SaveRhoXC              F     # default value
SaveElectrostaticPotential              F     # default value
SaveNeutralAtomPotential              F     # default value
SaveTotalPotential              F     # default value
SaveIonicCharge              F     # default value
SaveBaderCharge              F     # default value
SaveTotalCharge              F     # default value
Siesta2Wannier90.WriteMmn              F     # default value
Siesta2Wannier90.WriteUnk              F     # default value
Siesta2Wannier90.WriteAmn              F     # default value
Siesta2Wannier90.WriteEig              F     # default value
#:block? Siesta2Wannier90.NumberOfBandsUp              F
#:defined? Siesta2Wannier90.NumberOfBandsUp              F
#:block? Siesta2Wannier90.NumberOfBandsDown              F
#:defined? Siesta2Wannier90.NumberOfBandsDown              F
#:block? Siesta2Wannier90.NumberOfBands              F
#:defined? Siesta2Wannier90.NumberOfBands              F
Siesta2Wannier90.NumberOfBandsUp         0     # default value
Siesta2Wannier90.NumberOfBandsDown         0     # default value
Siesta2Wannier90.NumberOfBands         0     # default value
CDF.Save              F     # default value
CDF.Compress         0     # default value
CDF.MPI              F     # default value
CDF.Read.Parallel              F     # default value
#:block-line-count? Wannier.Manifolds   0
Wannier.Manifolds.R.between              F     # default value
Wannier.Manifold.IndexPerturbed         1     # default value
Wannier.Mmn.Diagonal              F     # default value
DFTD3.BJdamping              T     # default value
DFTD3.UseXCDefaults              T     # default value
DFTD3.s9          1.000000000         # default value
DFTD3.s6          1.000000000         # default value
DFTD3.rs6          1.000000000         # default value
DFTD3.s8          1.000000000         # default value
DFTD3.rs8          1.000000000         # default value
DFTD3.a1         0.4000000000         # default value
DFTD3.a2          5.000000000         # default value
DFTD3.alpha          14.00000000         # default value
DFTD3.s9          1.000000000         # default value
DFTD3.CoordinationCutoff          10.00000000     Bohr     # default value
DFTD3.2BodyCutoff          60.00000000     Bohr     # default value
DFTD3.3BodyCutoff          40.00000000     Bohr     # default value
DM.AllowReuse              T     # default value
DM.AllowExtrapolation              T     # default value
DM.AllowExtrapolation              F     # default value
NumberOfEigenStates      4572     # default value
RcSpatial          0.000000000     Bohr     # default value
ProcessorGridX         1     # default value
ProcessorGridY         1     # default value
ProcessorGridZ         1     # default value
FFT.ProcessorY.traditional              F     # default value
processorY         8     # default value
blocksize        64     # default value
Spin.Spiral              F     # default value
TimeReversalSymmetryForKpoints              T     # default value
%block kgrid.MonkhorstPack
    1  0  0  0.0
    0  1  0  0.0
    0  0  1  0.0
%endblock kgrid.MonkhorstPack
#:block? ProjectedDensityOfStates              F
#:block? LocalDensityOfStates              F
Diag.ProcessorY         8     # default value
Diag.BlockSize        64     # default value
Diag.Use2D              T     # default value
Diag.UpperLower     lower     # default value
Diag.DivideAndConquer              T     # default value
Diag.MRRR              F     # default value
Diag.NoExpert              F     # default value
Diag.Algorithm     Divide-and-Conquer     # default value
Diag.AbsTol         0.1000000000E-15     # default value
Diag.OrFac         0.1000000000E-05     # default value
Diag.Memory          1.000000000         # default value
#:block? BandLines              F
#:defined? BandLines              F
#:block? BandPoints              F
#:defined? BandPoints              F
LongOutput              F     # default value
WriteWaveFunctions              F     # default value
#:block-line-count? MetaForce (iirrr)   0
%block Geometry.Constraints
  center all 0.0 0.0 1.0
%endblock Geometry.Constraints
%block Geometry.Constraints
  center all 0.0 0.0 1.0
%endblock Geometry.Constraints
#:block? TS.BufferAtomsLeft              F
#:defined? TS.BufferAtomsLeft              F
#:block? TS.BufferAtomsRight              F
#:defined? TS.BufferAtomsRight              F
#:list? TS.Atoms.Buffer              F
TS.HS.Save              F     # default value
TS.DE.Save              F     # default value
TS.onlyS              F     # default value
TS.S.Save              F     # default value
Spin.Spiral              F     # default value
TimeReversalSymmetryForKpoints              T     # default value
#:list? TS.kgrid.MonkhorstPack                                                                                                                                                                                                                                                        F
#:block? TS.kgrid.Cutoff                                                                                                                                                                                                                                                               F
#:defined? TS.kgrid.Cutoff                                                                                                                                                                                                                                                               F
#:block? TS.kgrid.File                                                                                                                                                                                                                                                                 F
#:defined? TS.kgrid.File                                                                                                                                                                                                                                                                 F
AtomicCoordinatesFormat     Ang                                                                             
AtomCoorFormatOut     Ang                        # default value
LatticeConstant          1.889726125           Bohr
# above item originally: LatticeConstant          1.000000000     Ang       
debug-folding              F     # default value
Save.Overlap.Gradient              F     # default value
Sonly              F     # default value
File.DM.Init     Graphene.DM     # default value
DM.Init     atomic     # default value
DM.Init.RandomStates         0     # default value
Sonly              F     # default value
Debug.DHSCF              F     # default value
MeshSubDivisions         2     # default value
#:list? Mesh.Sizes              F
#:defined? MeshCutoff              T
#:block? MeshSizes              F
#:defined? MeshSizes              F
#:defined? MeshCutoff              T
XC.Use.BSC.CellXC              F     # default value
PROCS_PER_NODE         4     # default value
PROCS_PER_NODE         4     # default value
DirectPhi              F     # default value
SimulateDoping              F     # default value
Slab.DipoleCorrection     none     # default value
Read-H-from-file              F     # default value
timing-split-scf-steps              F     # default value
SingleExcitation              F     # default value
OccupationFunction     FD     # default value
OccupationFunction     FD     # default value
timing-split-scf-steps              F     # default value
timing-split-scf-steps              F     # default value
timing-split-scf-steps              F     # default value
timing-split-scf-steps              F     # default value
timing-split-scf-steps              F     # default value
timing-split-scf-steps              F     # default value
timing-split-scf-steps              F     # default value
timing-split-scf-steps              F     # default value
timing-split-scf-steps              F     # default value
timing-split-scf-steps              F     # default value
compute-forces              T     # default value
#:list? Grid.CellSampling              F
#:list? DFTD3.Periodic              F
debug-folding              F     # default value
Save.Overlap.Gradient              F     # default value
Sonly              F     # default value
UseDIISforDMExtrapolation              T     # default value
UseSVDExperimental              F     # default value
UseSVD              T     # default value
Sonly              F     # default value
#:list? Mesh.Sizes              F
#:defined? MeshCutoff              T
#:block? MeshSizes              F
#:defined? MeshSizes              F
#:defined? MeshCutoff              T
XC.Use.BSC.CellXC              F     # default value
PROCS_PER_NODE         4     # default value
PROCS_PER_NODE         4     # default value
Read-H-from-file              F     # default value
timing-split-scf-steps              F     # default value
timing-split-scf-steps              F     # default value
timing-split-scf-steps              F     # default value
timing-split-scf-steps              F     # default value
timing-split-scf-steps              F     # default value
timing-split-scf-steps              F     # default value
timing-split-scf-steps              F     # default value
timing-split-scf-steps              F     # default value
compute-forces              T     # default value
#:list? DFTD3.Periodic              F
debug-folding              F     # default value
Save.Overlap.Gradient              F     # default value
Sonly              F     # default value
UseDIISforDMExtrapolation              T     # default value
UseSVDExperimental              F     # default value
UseSVD              T     # default value
Sonly              F     # default value
#:list? Mesh.Sizes              F
#:defined? MeshCutoff              T
#:block? MeshSizes              F
#:defined? MeshSizes              F
#:defined? MeshCutoff              T
XC.Use.BSC.CellXC              F     # default value
PROCS_PER_NODE         4     # default value
PROCS_PER_NODE         4     # default value
Read-H-from-file              F     # default value
timing-split-scf-steps              F     # default value
timing-split-scf-steps              F     # default value
timing-split-scf-steps              F     # default value
timing-split-scf-steps              F     # default value
timing-split-scf-steps              F     # default value
timing-split-scf-steps              F     # default value
timing-split-scf-steps              F     # default value
timing-split-scf-steps              F     # default value
timing-split-scf-steps              F     # default value
compute-forces              T     # default value
#:list? DFTD3.Periodic              F
debug-folding              F     # default value
Save.Overlap.Gradient              F     # default value
Sonly              F     # default value
UseDIISforDMExtrapolation              T     # default value
UseSVDExperimental              F     # default value
UseSVD              T     # default value
Sonly              F     # default value
#:list? Mesh.Sizes              F
#:defined? MeshCutoff              T
#:block? MeshSizes              F
#:defined? MeshSizes              F
#:defined? MeshCutoff              T
XC.Use.BSC.CellXC              F     # default value
PROCS_PER_NODE         4     # default value
PROCS_PER_NODE         4     # default value
Read-H-from-file              F     # default value
timing-split-scf-steps              F     # default value
timing-split-scf-steps              F     # default value
timing-split-scf-steps              F     # default value
timing-split-scf-steps              F     # default value
timing-split-scf-steps              F     # default value
timing-split-scf-steps              F     # default value
timing-split-scf-steps              F     # default value
timing-split-scf-steps              F     # default value
timing-split-scf-steps              F     # default value
compute-forces              T     # default value
#:list? DFTD3.Periodic              F
debug-folding              F     # default value
Save.Overlap.Gradient              F     # default value
Sonly              F     # default value
UseDIISforDMExtrapolation              T     # default value
UseSVDExperimental              F     # default value
UseSVD              T     # default value
Sonly              F     # default value
#:list? Mesh.Sizes              F
#:defined? MeshCutoff              T
#:block? MeshSizes              F
#:defined? MeshSizes              F
#:defined? MeshCutoff              T
XC.Use.BSC.CellXC              F     # default value
PROCS_PER_NODE         4     # default value
PROCS_PER_NODE         4     # default value
Read-H-from-file              F     # default value
timing-split-scf-steps              F     # default value
timing-split-scf-steps              F     # default value
timing-split-scf-steps              F     # default value
timing-split-scf-steps              F     # default value
timing-split-scf-steps              F     # default value
timing-split-scf-steps              F     # default value
timing-split-scf-steps              F     # default value
timing-split-scf-steps              F     # default value
timing-split-scf-steps              F     # default value
compute-forces              T     # default value
#:list? DFTD3.Periodic              F
debug-folding              F     # default value
Save.Overlap.Gradient              F     # default value
Sonly              F     # default value
UseDIISforDMExtrapolation              T     # default value
UseSVDExperimental              F     # default value
UseSVD              T     # default value
Sonly              F     # default value
#:list? Mesh.Sizes              F
#:defined? MeshCutoff              T
#:block? MeshSizes              F
#:defined? MeshSizes              F
#:defined? MeshCutoff              T
XC.Use.BSC.CellXC              F     # default value
PROCS_PER_NODE         4     # default value
PROCS_PER_NODE         4     # default value
Read-H-from-file              F     # default value
timing-split-scf-steps              F     # default value
timing-split-scf-steps              F     # default value
timing-split-scf-steps              F     # default value
timing-split-scf-steps              F     # default value
timing-split-scf-steps              F     # default value
timing-split-scf-steps              F     # default value
timing-split-scf-steps              F     # default value
timing-split-scf-steps              F     # default value
compute-forces              T     # default value
#:list? DFTD3.Periodic              F
debug-folding              F     # default value
Save.Overlap.Gradient              F     # default value
Sonly              F     # default value
UseDIISforDMExtrapolation              T     # default value
UseSVDExperimental              F     # default value
UseSVD              T     # default value
Sonly              F     # default value
#:list? Mesh.Sizes              F
#:defined? MeshCutoff              T
#:block? MeshSizes              F
#:defined? MeshSizes              F
#:defined? MeshCutoff              T
XC.Use.BSC.CellXC              F     # default value
PROCS_PER_NODE         4     # default value
PROCS_PER_NODE         4     # default value
Read-H-from-file              F     # default value
timing-split-scf-steps              F     # default value
timing-split-scf-steps              F     # default value
timing-split-scf-steps              F     # default value
timing-split-scf-steps              F     # default value
timing-split-scf-steps              F     # default value
timing-split-scf-steps              F     # default value
compute-forces              T     # default value
#:list? DFTD3.Periodic              F
debug-folding              F     # default value
Save.Overlap.Gradient              F     # default value
Sonly              F     # default value
UseDIISforDMExtrapolation              T     # default value
UseSVDExperimental              F     # default value
UseSVD              T     # default value
Sonly              F     # default value
#:list? Mesh.Sizes              F
#:defined? MeshCutoff              T
#:block? MeshSizes              F
#:defined? MeshSizes              F
#:defined? MeshCutoff              T
XC.Use.BSC.CellXC              F     # default value
PROCS_PER_NODE         4     # default value
PROCS_PER_NODE         4     # default value
Read-H-from-file              F     # default value
timing-split-scf-steps              F     # default value
timing-split-scf-steps              F     # default value
timing-split-scf-steps              F     # default value
timing-split-scf-steps              F     # default value
timing-split-scf-steps              F     # default value
timing-split-scf-steps              F     # default value
compute-forces              T     # default value
#:list? DFTD3.Periodic              F
debug-folding              F     # default value
Save.Overlap.Gradient              F     # default value
Sonly              F     # default value
UseDIISforDMExtrapolation              T     # default value
UseSVDExperimental              F     # default value
UseSVD              T     # default value
Sonly              F     # default value
#:list? Mesh.Sizes              F
#:defined? MeshCutoff              T
#:block? MeshSizes              F
#:defined? MeshSizes              F
#:defined? MeshCutoff              T
XC.Use.BSC.CellXC              F     # default value
PROCS_PER_NODE         4     # default value
PROCS_PER_NODE         4     # default value
Read-H-from-file              F     # default value
timing-split-scf-steps              F     # default value
timing-split-scf-steps              F     # default value
timing-split-scf-steps              F     # default value
timing-split-scf-steps              F     # default value
timing-split-scf-steps              F     # default value
compute-forces              T     # default value
#:list? DFTD3.Periodic              F
debug-folding              F     # default value
Save.Overlap.Gradient              F     # default value
Sonly              F     # default value
UseDIISforDMExtrapolation              T     # default value
UseSVDExperimental              F     # default value
UseSVD              T     # default value
Sonly              F     # default value
#:list? Mesh.Sizes              F
#:defined? MeshCutoff              T
#:block? MeshSizes              F
#:defined? MeshSizes              F
#:defined? MeshCutoff              T
XC.Use.BSC.CellXC              F     # default value
PROCS_PER_NODE         4     # default value
PROCS_PER_NODE         4     # default value
Read-H-from-file              F     # default value
timing-split-scf-steps              F     # default value
timing-split-scf-steps              F     # default value
timing-split-scf-steps              F     # default value
timing-split-scf-steps              F     # default value
timing-split-scf-steps              F     # default value
timing-split-scf-steps              F     # default value
timing-split-scf-steps              F     # default value
compute-forces              T     # default value
#:list? DFTD3.Periodic              F
debug-folding              F     # default value
Save.Overlap.Gradient              F     # default value
Sonly              F     # default value
UseDIISforDMExtrapolation              T     # default value
UseSVDExperimental              F     # default value
UseSVD              T     # default value
Sonly              F     # default value
#:list? Mesh.Sizes              F
#:defined? MeshCutoff              T
#:block? MeshSizes              F
#:defined? MeshSizes              F
#:defined? MeshCutoff              T
XC.Use.BSC.CellXC              F     # default value
PROCS_PER_NODE         4     # default value
PROCS_PER_NODE         4     # default value
Read-H-from-file              F     # default value
timing-split-scf-steps              F     # default value
timing-split-scf-steps              F     # default value
timing-split-scf-steps              F     # default value
timing-split-scf-steps              F     # default value
timing-split-scf-steps              F     # default value
timing-split-scf-steps              F     # default value
compute-forces              T     # default value
#:list? DFTD3.Periodic              F
debug-folding              F     # default value
Save.Overlap.Gradient              F     # default value
Sonly              F     # default value
UseDIISforDMExtrapolation              T     # default value
UseSVDExperimental              F     # default value
UseSVD              T     # default value
Sonly              F     # default value
#:list? Mesh.Sizes              F
#:defined? MeshCutoff              T
#:block? MeshSizes              F
#:defined? MeshSizes              F
#:defined? MeshCutoff              T
XC.Use.BSC.CellXC              F     # default value
PROCS_PER_NODE         4     # default value
PROCS_PER_NODE         4     # default value
Read-H-from-file              F     # default value
timing-split-scf-steps              F     # default value
timing-split-scf-steps              F     # default value
timing-split-scf-steps              F     # default value
timing-split-scf-steps              F     # default value
timing-split-scf-steps              F     # default value
timing-split-scf-steps              F     # default value
compute-forces              T     # default value
#:list? DFTD3.Periodic              F
debug-folding              F     # default value
Save.Overlap.Gradient              F     # default value
Sonly              F     # default value
UseDIISforDMExtrapolation              T     # default value
UseSVDExperimental              F     # default value
UseSVD              T     # default value
Sonly              F     # default value
#:list? Mesh.Sizes              F
#:defined? MeshCutoff              T
#:block? MeshSizes              F
#:defined? MeshSizes              F
#:defined? MeshCutoff              T
XC.Use.BSC.CellXC              F     # default value
PROCS_PER_NODE         4     # default value
PROCS_PER_NODE         4     # default value
Read-H-from-file              F     # default value
timing-split-scf-steps              F     # default value
timing-split-scf-steps              F     # default value
timing-split-scf-steps              F     # default value
timing-split-scf-steps              F     # default value
timing-split-scf-steps              F     # default value
timing-split-scf-steps              F     # default value
compute-forces              T     # default value
#:list? DFTD3.Periodic              F
debug-folding              F     # default value
Save.Overlap.Gradient              F     # default value
Sonly              F     # default value
UseDIISforDMExtrapolation              T     # default value
UseSVDExperimental              F     # default value
UseSVD              T     # default value
Sonly              F     # default value
#:list? Mesh.Sizes              F
#:defined? MeshCutoff              T
#:block? MeshSizes              F
#:defined? MeshSizes              F
#:defined? MeshCutoff              T
XC.Use.BSC.CellXC              F     # default value
PROCS_PER_NODE         4     # default value
PROCS_PER_NODE         4     # default value
Read-H-from-file              F     # default value
timing-split-scf-steps              F     # default value
timing-split-scf-steps              F     # default value
timing-split-scf-steps              F     # default value
timing-split-scf-steps              F     # default value
timing-split-scf-steps              F     # default value
compute-forces              T     # default value
#:list? DFTD3.Periodic              F
debug-folding              F     # default value
Save.Overlap.Gradient              F     # default value
Sonly              F     # default value
UseDIISforDMExtrapolation              T     # default value
UseSVDExperimental              F     # default value
UseSVD              T     # default value
Sonly              F     # default value
#:list? Mesh.Sizes              F
#:defined? MeshCutoff              T
#:block? MeshSizes              F
#:defined? MeshSizes              F
#:defined? MeshCutoff              T
XC.Use.BSC.CellXC              F     # default value
PROCS_PER_NODE         4     # default value
PROCS_PER_NODE         4     # default value
Read-H-from-file              F     # default value
timing-split-scf-steps              F     # default value
timing-split-scf-steps              F     # default value
timing-split-scf-steps              F     # default value
timing-split-scf-steps              F     # default value
timing-split-scf-steps              F     # default value
timing-split-scf-steps              F     # default value
compute-forces              T     # default value
#:list? DFTD3.Periodic              F
debug-folding              F     # default value
Save.Overlap.Gradient              F     # default value
Sonly              F     # default value
UseDIISforDMExtrapolation              T     # default value
UseSVDExperimental              F     # default value
UseSVD              T     # default value
Sonly              F     # default value
#:list? Mesh.Sizes              F
#:defined? MeshCutoff              T
#:block? MeshSizes              F
#:defined? MeshSizes              F
#:defined? MeshCutoff              T
XC.Use.BSC.CellXC              F     # default value
PROCS_PER_NODE         4     # default value
PROCS_PER_NODE         4     # default value
Read-H-from-file              F     # default value
timing-split-scf-steps              F     # default value
timing-split-scf-steps              F     # default value
timing-split-scf-steps              F     # default value
timing-split-scf-steps              F     # default value
timing-split-scf-steps              F     # default value
compute-forces              T     # default value
#:list? DFTD3.Periodic              F
debug-folding              F     # default value
Save.Overlap.Gradient              F     # default value
Sonly              F     # default value
UseDIISforDMExtrapolation              T     # default value
UseSVDExperimental              F     # default value
UseSVD              T     # default value
Sonly              F     # default value
#:list? Mesh.Sizes              F
#:defined? MeshCutoff              T
#:block? MeshSizes              F
#:defined? MeshSizes              F
#:defined? MeshCutoff              T
XC.Use.BSC.CellXC              F     # default value
PROCS_PER_NODE         4     # default value
PROCS_PER_NODE         4     # default value
Read-H-from-file              F     # default value
timing-split-scf-steps              F     # default value
timing-split-scf-steps              F     # default value
timing-split-scf-steps              F     # default value
timing-split-scf-steps              F     # default value
timing-split-scf-steps              F     # default value
timing-split-scf-steps              F     # default value
compute-forces              T     # default value
#:list? DFTD3.Periodic              F
debug-folding              F     # default value
Save.Overlap.Gradient              F     # default value
Sonly              F     # default value
UseDIISforDMExtrapolation              T     # default value
UseSVDExperimental              F     # default value
UseSVD              T     # default value
Sonly              F     # default value
#:list? Mesh.Sizes              F
#:defined? MeshCutoff              T
#:block? MeshSizes              F
#:defined? MeshSizes              F
#:defined? MeshCutoff              T
XC.Use.BSC.CellXC              F     # default value
PROCS_PER_NODE         4     # default value
PROCS_PER_NODE         4     # default value
Read-H-from-file              F     # default value
timing-split-scf-steps              F     # default value
timing-split-scf-steps              F     # default value
timing-split-scf-steps              F     # default value
timing-split-scf-steps              F     # default value
compute-forces              T     # default value
#:list? DFTD3.Periodic              F
debug-folding              F     # default value
Save.Overlap.Gradient              F     # default value
Sonly              F     # default value
UseDIISforDMExtrapolation              T     # default value
UseSVDExperimental              F     # default value
UseSVD              T     # default value
Sonly              F     # default value
#:list? Mesh.Sizes              F
#:defined? MeshCutoff              T
#:block? MeshSizes              F
#:defined? MeshSizes              F
#:defined? MeshCutoff              T
XC.Use.BSC.CellXC              F     # default value
PROCS_PER_NODE         4     # default value
PROCS_PER_NODE         4     # default value
Read-H-from-file              F     # default value
timing-split-scf-steps              F     # default value
timing-split-scf-steps              F     # default value
timing-split-scf-steps              F     # default value
timing-split-scf-steps              F     # default value
timing-split-scf-steps              F     # default value
compute-forces              T     # default value
#:list? DFTD3.Periodic              F
debug-folding              F     # default value
Save.Overlap.Gradient              F     # default value
Sonly              F     # default value
UseDIISforDMExtrapolation              T     # default value
UseSVDExperimental              F     # default value
UseSVD              T     # default value
Sonly              F     # default value
#:list? Mesh.Sizes              F
#:defined? MeshCutoff              T
#:block? MeshSizes              F
#:defined? MeshSizes              F
#:defined? MeshCutoff              T
XC.Use.BSC.CellXC              F     # default value
PROCS_PER_NODE         4     # default value
PROCS_PER_NODE         4     # default value
Read-H-from-file              F     # default value
timing-split-scf-steps              F     # default value
timing-split-scf-steps              F     # default value
timing-split-scf-steps              F     # default value
timing-split-scf-steps              F     # default value
timing-split-scf-steps              F     # default value
compute-forces              T     # default value
#:list? DFTD3.Periodic              F
debug-folding              F     # default value
Save.Overlap.Gradient              F     # default value
Sonly              F     # default value
UseDIISforDMExtrapolation              T     # default value
UseSVDExperimental              F     # default value
UseSVD              T     # default value
Sonly              F     # default value
#:list? Mesh.Sizes              F
#:defined? MeshCutoff              T
#:block? MeshSizes              F
#:defined? MeshSizes              F
#:defined? MeshCutoff              T
XC.Use.BSC.CellXC              F     # default value
PROCS_PER_NODE         4     # default value
PROCS_PER_NODE         4     # default value
Read-H-from-file              F     # default value
timing-split-scf-steps              F     # default value
timing-split-scf-steps              F     # default value
timing-split-scf-steps              F     # default value
timing-split-scf-steps              F     # default value
timing-split-scf-steps              F     # default value
compute-forces              T     # default value
#:list? DFTD3.Periodic              F
debug-folding              F     # default value
Save.Overlap.Gradient              F     # default value
Sonly              F     # default value
UseDIISforDMExtrapolation              T     # default value
UseSVDExperimental              F     # default value
UseSVD              T     # default value
Sonly              F     # default value
#:list? Mesh.Sizes              F
#:defined? MeshCutoff              T
#:block? MeshSizes              F
#:defined? MeshSizes              F
#:defined? MeshCutoff              T
XC.Use.BSC.CellXC              F     # default value
PROCS_PER_NODE         4     # default value
PROCS_PER_NODE         4     # default value
Read-H-from-file              F     # default value
timing-split-scf-steps              F     # default value
timing-split-scf-steps              F     # default value
timing-split-scf-steps              F     # default value
timing-split-scf-steps              F     # default value
timing-split-scf-steps              F     # default value
timing-split-scf-steps              F     # default value
compute-forces              T     # default value
#:list? DFTD3.Periodic              F
debug-folding              F     # default value
Save.Overlap.Gradient              F     # default value
Sonly              F     # default value
UseDIISforDMExtrapolation              T     # default value
UseSVDExperimental              F     # default value
UseSVD              T     # default value
Sonly              F     # default value
#:list? Mesh.Sizes              F
#:defined? MeshCutoff              T
#:block? MeshSizes              F
#:defined? MeshSizes              F
#:defined? MeshCutoff              T
XC.Use.BSC.CellXC              F     # default value
PROCS_PER_NODE         4     # default value
PROCS_PER_NODE         4     # default value
Read-H-from-file              F     # default value
timing-split-scf-steps              F     # default value
timing-split-scf-steps              F     # default value
timing-split-scf-steps              F     # default value
timing-split-scf-steps              F     # default value
compute-forces              T     # default value
#:list? DFTD3.Periodic              F
debug-folding              F     # default value
Save.Overlap.Gradient              F     # default value
Sonly              F     # default value
UseDIISforDMExtrapolation              T     # default value
UseSVDExperimental              F     # default value
UseSVD              T     # default value
Sonly              F     # default value
#:list? Mesh.Sizes              F
#:defined? MeshCutoff              T
#:block? MeshSizes              F
#:defined? MeshSizes              F
#:defined? MeshCutoff              T
XC.Use.BSC.CellXC              F     # default value
PROCS_PER_NODE         4     # default value
PROCS_PER_NODE         4     # default value
Read-H-from-file              F     # default value
timing-split-scf-steps              F     # default value
timing-split-scf-steps              F     # default value
timing-split-scf-steps              F     # default value
timing-split-scf-steps              F     # default value
timing-split-scf-steps              F     # default value
timing-split-scf-steps              F     # default value
compute-forces              T     # default value
#:list? DFTD3.Periodic              F
debug-folding              F     # default value
Save.Overlap.Gradient              F     # default value
Sonly              F     # default value
UseDIISforDMExtrapolation              T     # default value
UseSVDExperimental              F     # default value
UseSVD              T     # default value
Sonly              F     # default value
#:list? Mesh.Sizes              F
#:defined? MeshCutoff              T
#:block? MeshSizes              F
#:defined? MeshSizes              F
#:defined? MeshCutoff              T
XC.Use.BSC.CellXC              F     # default value
PROCS_PER_NODE         4     # default value
PROCS_PER_NODE         4     # default value
Read-H-from-file              F     # default value
timing-split-scf-steps              F     # default value
timing-split-scf-steps              F     # default value
timing-split-scf-steps              F     # default value
timing-split-scf-steps              F     # default value
timing-split-scf-steps              F     # default value
timing-split-scf-steps              F     # default value
compute-forces              T     # default value
#:list? DFTD3.Periodic              F
debug-folding              F     # default value
Save.Overlap.Gradient              F     # default value
Sonly              F     # default value
UseDIISforDMExtrapolation              T     # default value
UseSVDExperimental              F     # default value
UseSVD              T     # default value
Sonly              F     # default value
#:list? Mesh.Sizes              F
#:defined? MeshCutoff              T
#:block? MeshSizes              F
#:defined? MeshSizes              F
#:defined? MeshCutoff              T
XC.Use.BSC.CellXC              F     # default value
PROCS_PER_NODE         4     # default value
PROCS_PER_NODE         4     # default value
Read-H-from-file              F     # default value
timing-split-scf-steps              F     # default value
timing-split-scf-steps              F     # default value
timing-split-scf-steps              F     # default value
timing-split-scf-steps              F     # default value
timing-split-scf-steps              F     # default value
timing-split-scf-steps              F     # default value
compute-forces              T     # default value
#:list? DFTD3.Periodic              F
debug-folding              F     # default value
Save.Overlap.Gradient              F     # default value
Sonly              F     # default value
UseDIISforDMExtrapolation              T     # default value
UseSVDExperimental              F     # default value
UseSVD              T     # default value
Sonly              F     # default value
#:list? Mesh.Sizes              F
#:defined? MeshCutoff              T
#:block? MeshSizes              F
#:defined? MeshSizes              F
#:defined? MeshCutoff              T
XC.Use.BSC.CellXC              F     # default value
[...]
#:list? Mesh.Sizes              F
#:defined? MeshCutoff              T
#:block? MeshSizes              F
#:defined? MeshSizes              F
#:defined? MeshCutoff              T
XC.Use.BSC.CellXC              F     # default value
PROCS_PER_NODE         4     # default value
PROCS_PER_NODE         4     # default value
Read-H-from-file              F     # default value
timing-split-scf-steps              F     # default value
timing-split-scf-steps              F     # default value
timing-split-scf-steps              F     # default value
timing-split-scf-steps              F     # default value
compute-forces              T     # default value
#:list? DFTD3.Periodic              F
debug-folding              F     # default value
Save.Overlap.Gradient              F     # default value
Sonly              F     # default value
UseDIISforDMExtrapolation              T     # default value
UseSVDExperimental              F     # default value
UseSVD              T     # default value
Sonly              F     # default value
#:list? Mesh.Sizes              F
#:defined? MeshCutoff              T
#:block? MeshSizes              F
#:defined? MeshSizes              F
#:defined? MeshCutoff              T
XC.Use.BSC.CellXC              F     # default value
PROCS_PER_NODE         4     # default value
PROCS_PER_NODE         4     # default value
Read-H-from-file              F     # default value
timing-split-scf-steps              F     # default value
timing-split-scf-steps              F     # default value
timing-split-scf-steps              F     # default value
timing-split-scf-steps              F     # default value
timing-split-scf-steps              F     # default value
compute-forces              T     # default value
#:list? DFTD3.Periodic              F
debug-folding              F     # default value
Save.Overlap.Gradient              F     # default value
Sonly              F     # default value
UseDIISforDMExtrapolation              T     # default value
UseSVDExperimental              F     # default value
UseSVD              T     # default value
Sonly              F     # default value
#:list? Mesh.Sizes              F
#:defined? MeshCutoff              T
#:block? MeshSizes              F
#:defined? MeshSizes              F
#:defined? MeshCutoff              T
XC.Use.BSC.CellXC              F     # default value
PROCS_PER_NODE         4     # default value
PROCS_PER_NODE         4     # default value
Read-H-from-file              F     # default value
timing-split-scf-steps              F     # default value
timing-split-scf-steps              F     # default value
timing-split-scf-steps              F     # default value
compute-forces              T     # default value
#:list? DFTD3.Periodic              F
debug-folding              F     # default value
Save.Overlap.Gradient              F     # default value
Sonly              F     # default value
UseDIISforDMExtrapolation              T     # default value
UseSVDExperimental              F     # default value
UseSVD              T     # default value
Sonly              F     # default value
#:list? Mesh.Sizes              F
#:defined? MeshCutoff              T
#:block? MeshSizes              F
#:defined? MeshSizes              F
#:defined? MeshCutoff              T
XC.Use.BSC.CellXC              F     # default value
PROCS_PER_NODE         4     # default value
PROCS_PER_NODE         4     # default value
Read-H-from-file              F     # default value
timing-split-scf-steps              F     # default value
timing-split-scf-steps              F     # default value
timing-split-scf-steps              F     # default value
timing-split-scf-steps              F     # default value
timing-split-scf-steps              F     # default value
compute-forces              T     # default value
#:list? DFTD3.Periodic              F
debug-folding              F     # default value
Save.Overlap.Gradient              F     # default value
Sonly              F     # default value
UseDIISforDMExtrapolation              T     # default value
UseSVDExperimental              F     # default value
UseSVD              T     # default value
Sonly              F     # default value
#:list? Mesh.Sizes              F
#:defined? MeshCutoff              T
#:block? MeshSizes              F
#:defined? MeshSizes              F
#:defined? MeshCutoff              T
XC.Use.BSC.CellXC              F     # default value
PROCS_PER_NODE         4     # default value
PROCS_PER_NODE         4     # default value
Read-H-from-file              F     # default value
timing-split-scf-steps              F     # default value
timing-split-scf-steps              F     # default value
timing-split-scf-steps              F     # default value
timing-split-scf-steps              F     # default value
compute-forces              T     # default value
#:list? DFTD3.Periodic              F
debug-folding              F     # default value
Save.Overlap.Gradient              F     # default value
Sonly              F     # default value
UseDIISforDMExtrapolation              T     # default value
UseSVDExperimental              F     # default value
UseSVD              T     # default value
Sonly              F     # default value
#:list? Mesh.Sizes              F
#:defined? MeshCutoff              T
#:block? MeshSizes              F
#:defined? MeshSizes              F
#:defined? MeshCutoff              T
XC.Use.BSC.CellXC              F     # default value
PROCS_PER_NODE         4     # default value
PROCS_PER_NODE         4     # default value
Read-H-from-file              F     # default value
timing-split-scf-steps              F     # default value
timing-split-scf-steps              F     # default value
timing-split-scf-steps              F     # default value
timing-split-scf-steps              F     # default value
compute-forces              T     # default value
#:list? DFTD3.Periodic              F
debug-folding              F     # default value
Save.Overlap.Gradient              F     # default value
Sonly              F     # default value
UseDIISforDMExtrapolation              T     # default value
UseSVDExperimental              F     # default value
UseSVD              T     # default value
Sonly              F     # default value
#:list? Mesh.Sizes              F
#:defined? MeshCutoff              T
#:block? MeshSizes              F
#:defined? MeshSizes              F
#:defined? MeshCutoff              T
XC.Use.BSC.CellXC              F     # default value
PROCS_PER_NODE         4     # default value
PROCS_PER_NODE         4     # default value
Read-H-from-file              F     # default value
timing-split-scf-steps              F     # default value
timing-split-scf-steps              F     # default value
timing-split-scf-steps              F     # default value
timing-split-scf-steps              F     # default value
timing-split-scf-steps              F     # default value
compute-forces              T     # default value
#:list? DFTD3.Periodic              F
debug-folding              F     # default value
Save.Overlap.Gradient              F     # default value
Sonly              F     # default value
UseDIISforDMExtrapolation              T     # default value
UseSVDExperimental              F     # default value
UseSVD              T     # default value
Sonly              F     # default value
#:list? Mesh.Sizes              F
#:defined? MeshCutoff              T
#:block? MeshSizes              F
#:defined? MeshSizes              F
#:defined? MeshCutoff              T
XC.Use.BSC.CellXC              F     # default value
PROCS_PER_NODE         4     # default value
PROCS_PER_NODE         4     # default value
Read-H-from-file              F     # default value
timing-split-scf-steps              F     # default value
timing-split-scf-steps              F     # default value
timing-split-scf-steps              F     # default value
timing-split-scf-steps              F     # default value
timing-split-scf-steps              F     # default value
compute-forces              T     # default value
#:list? DFTD3.Periodic              F
debug-folding              F     # default value
Save.Overlap.Gradient              F     # default value
Sonly              F     # default value
UseDIISforDMExtrapolation              T     # default value
UseSVDExperimental              F     # default value
UseSVD              T     # default value
Sonly              F     # default value
#:list? Mesh.Sizes              F
#:defined? MeshCutoff              T
#:block? MeshSizes              F
#:defined? MeshSizes              F
#:defined? MeshCutoff              T
XC.Use.BSC.CellXC              F     # default value
PROCS_PER_NODE         4     # default value
PROCS_PER_NODE         4     # default value
Read-H-from-file              F     # default value
timing-split-scf-steps              F     # default value
timing-split-scf-steps              F     # default value
timing-split-scf-steps              F     # default value
timing-split-scf-steps              F     # default value
timing-split-scf-steps              F     # default value
compute-forces              T     # default value
#:list? DFTD3.Periodic              F
debug-folding              F     # default value
Save.Overlap.Gradient              F     # default value
Sonly              F     # default value
UseDIISforDMExtrapolation              T     # default value
UseSVDExperimental              F     # default value
UseSVD              T     # default value
Sonly              F     # default value
#:list? Mesh.Sizes              F
#:defined? MeshCutoff              T
#:block? MeshSizes              F
#:defined? MeshSizes              F
#:defined? MeshCutoff              T
XC.Use.BSC.CellXC              F     # default value
PROCS_PER_NODE         4     # default value
PROCS_PER_NODE         4     # default value
Read-H-from-file              F     # default value
timing-split-scf-steps              F     # default value
timing-split-scf-steps              F     # default value
timing-split-scf-steps              F     # default value
compute-forces              T     # default value
#:list? DFTD3.Periodic              F
debug-folding              F     # default value
Save.Overlap.Gradient              F     # default value
Sonly              F     # default value
UseDIISforDMExtrapolation              T     # default value
UseSVDExperimental              F     # default value
UseSVD              T     # default value
Sonly              F     # default value
#:list? Mesh.Sizes              F
#:defined? MeshCutoff              T
#:block? MeshSizes              F
#:defined? MeshSizes              F
#:defined? MeshCutoff              T
XC.Use.BSC.CellXC              F     # default value
PROCS_PER_NODE         4     # default value
PROCS_PER_NODE         4     # default value
Read-H-from-file              F     # default value
timing-split-scf-steps              F     # default value
timing-split-scf-steps              F     # default value
timing-split-scf-steps              F     # default value
timing-split-scf-steps              F     # default value
timing-split-scf-steps              F     # default value
compute-forces              T     # default value
#:list? DFTD3.Periodic              F
debug-folding              F     # default value
Save.Overlap.Gradient              F     # default value
Sonly              F     # default value
UseDIISforDMExtrapolation              T     # default value
UseSVDExperimental              F     # default value
UseSVD              T     # default value
Sonly              F     # default value
#:list? Mesh.Sizes              F
#:defined? MeshCutoff              T
#:block? MeshSizes              F
#:defined? MeshSizes              F
#:defined? MeshCutoff              T
XC.Use.BSC.CellXC              F     # default value
PROCS_PER_NODE         4     # default value
PROCS_PER_NODE         4     # default value
Read-H-from-file              F     # default value
timing-split-scf-steps              F     # default value
timing-split-scf-steps              F     # default value
timing-split-scf-steps              F     # default value
timing-split-scf-steps              F     # default value
compute-forces              T     # default value
#:list? DFTD3.Periodic              F
debug-folding              F     # default value
Save.Overlap.Gradient              F     # default value
Sonly              F     # default value
UseDIISforDMExtrapolation              T     # default value
UseSVDExperimental              F     # default value
UseSVD              T     # default value
Sonly              F     # default value
#:list? Mesh.Sizes              F
#:defined? MeshCutoff              T
#:block? MeshSizes              F
#:defined? MeshSizes              F
#:defined? MeshCutoff              T
XC.Use.BSC.CellXC              F     # default value
PROCS_PER_NODE         4     # default value
PROCS_PER_NODE         4     # default value
Read-H-from-file              F     # default value
timing-split-scf-steps              F     # default value
timing-split-scf-steps              F     # default value
timing-split-scf-steps              F     # default value
timing-split-scf-steps              F     # default value
compute-forces              T     # default value
#:list? DFTD3.Periodic              F
debug-folding              F     # default value
Save.Overlap.Gradient              F     # default value
Sonly              F     # default value
UseDIISforDMExtrapolation              T     # default value
UseSVDExperimental              F     # default value
UseSVD              T     # default value
Sonly              F     # default value
#:list? Mesh.Sizes              F
#:defined? MeshCutoff              T
#:block? MeshSizes              F
#:defined? MeshSizes              F
#:defined? MeshCutoff              T
XC.Use.BSC.CellXC              F     # default value
PROCS_PER_NODE         4     # default value
PROCS_PER_NODE         4     # default value
Read-H-from-file              F     # default value
timing-split-scf-steps              F     # default value
timing-split-scf-steps              F     # default value
timing-split-scf-steps              F     # default value
timing-split-scf-steps              F     # default value
compute-forces              T     # default value
#:list? DFTD3.Periodic              F
debug-folding              F     # default value
Save.Overlap.Gradient              F     # default value
Sonly              F     # default value
UseDIISforDMExtrapolation              T     # default value
UseSVDExperimental              F     # default value
UseSVD              T     # default value
Sonly              F     # default value
#:list? Mesh.Sizes              F
#:defined? MeshCutoff              T
#:block? MeshSizes              F
#:defined? MeshSizes              F
#:defined? MeshCutoff              T
XC.Use.BSC.CellXC              F     # default value
PROCS_PER_NODE         4     # default value
PROCS_PER_NODE         4     # default value
Read-H-from-file              F     # default value
timing-split-scf-steps              F     # default value
timing-split-scf-steps              F     # default value
timing-split-scf-steps              F     # default value
timing-split-scf-steps              F     # default value
compute-forces              T     # default value
#:list? DFTD3.Periodic              F
debug-folding              F     # default value
Save.Overlap.Gradient              F     # default value
Sonly              F     # default value
UseDIISforDMExtrapolation              T     # default value
UseSVDExperimental              F     # default value
UseSVD              T     # default value
Sonly              F     # default value
#:list? Mesh.Sizes              F
#:defined? MeshCutoff              T
#:block? MeshSizes              F
#:defined? MeshSizes              F
#:defined? MeshCutoff              T
XC.Use.BSC.CellXC              F     # default value
PROCS_PER_NODE         4     # default value
PROCS_PER_NODE         4     # default value
Read-H-from-file              F     # default value
timing-split-scf-steps              F     # default value
timing-split-scf-steps              F     # default value
timing-split-scf-steps              F     # default value
timing-split-scf-steps              F     # default value
compute-forces              T     # default value
#:list? DFTD3.Periodic              F
debug-folding              F     # default value
Save.Overlap.Gradient              F     # default value
Sonly              F     # default value
UseDIISforDMExtrapolation              T     # default value
UseSVDExperimental              F     # default value
UseSVD              T     # default value
Sonly              F     # default value
#:list? Mesh.Sizes              F
#:defined? MeshCutoff              T
#:block? MeshSizes              F
#:defined? MeshSizes              F
#:defined? MeshCutoff              T
XC.Use.BSC.CellXC              F     # default value
PROCS_PER_NODE         4     # default value
PROCS_PER_NODE         4     # default value
Read-H-from-file              F     # default value
timing-split-scf-steps              F     # default value
timing-split-scf-steps              F     # default value
timing-split-scf-steps              F     # default value
timing-split-scf-steps              F     # default value
timing-split-scf-steps              F     # default value
compute-forces              T     # default value
#:list? DFTD3.Periodic              F
debug-folding              F     # default value
Save.Overlap.Gradient              F     # default value
Sonly              F     # default value
UseDIISforDMExtrapolation              T     # default value
UseSVDExperimental              F     # default value
UseSVD              T     # default value
Sonly              F     # default value
#:list? Mesh.Sizes              F
#:defined? MeshCutoff              T
#:block? MeshSizes              F
#:defined? MeshSizes              F
#:defined? MeshCutoff              T
XC.Use.BSC.CellXC              F     # default value
PROCS_PER_NODE         4     # default value
PROCS_PER_NODE         4     # default value
Read-H-from-file              F     # default value
timing-split-scf-steps              F     # default value
timing-split-scf-steps              F     # default value
timing-split-scf-steps              F     # default value
timing-split-scf-steps              F     # default value
timing-split-scf-steps              F     # default value
compute-forces              T     # default value
#:list? DFTD3.Periodic              F
debug-folding              F     # default value
Save.Overlap.Gradient              F     # default value
Sonly              F     # default value
UseDIISforDMExtrapolation              T     # default value
UseSVDExperimental              F     # default value
UseSVD              T     # default value
Sonly              F     # default value
#:list? Mesh.Sizes              F
#:defined? MeshCutoff              T
#:block? MeshSizes              F
#:defined? MeshSizes              F
#:defined? MeshCutoff              T
XC.Use.BSC.CellXC              F     # default value
PROCS_PER_NODE         4     # default value
PROCS_PER_NODE         4     # default value
Read-H-from-file              F     # default value
timing-split-scf-steps              F     # default value
timing-split-scf-steps              F     # default value
timing-split-scf-steps              F     # default value
timing-split-scf-steps              F     # default value
compute-forces              T     # default value
#:list? DFTD3.Periodic              F
Read-H-from-file              F     # default value
WriteCoorXmol              F     # default value
WriteCoorCerius              F     # default value
BasisPressure         0.2000000000     GPa     # default value
OpticalCalculation              F     # default value
