Siesta Version  : 5.0.0-alpha-112-g6e4f53aee-dirty
Architecture    : ----
Compiler version: Intel-2021.8.0.20221119
Compiler flags  : -O2 -ip -xHost -fp-model=strict -prec-div -prec-sqrt
PP flags        : ----
Libraries       : ----
Parallelisations: MPI
GEMM3M support
NetCDF support
NetCDF-4 support

Runtime information:
* Directory : /n/holylabs/LABS/kaxiras_lab/axzhu/projects/AM207-final-project/N_7/PSO_z
* Running on 64 nodes in parallel.
>> Start of run:   1-DEC-2024  14:15:46

                           *********************** 
                           *  WELCOME TO SIESTA  * 
                           *********************** 

reinit: Reading from standard input
reinit: Dumping input in INPUT_TMP.63782
************************** Dump of input data file ****************************
#################################
#				#
#	Basic Information	#
#	      			#
#################################
SystemName      Graphene
SystemLabel     Graphene
#########################################
#					#
#	Structural Information		#
#					#
#########################################
%include structure.fdf
#################################
#                               #
#       DFT Parameters          #
#                               #
#################################
SolutionMethod diagon           # Method of solving system. Can change to OrderN, transiesta, etc.
#Diag.Algorithm MRRR
#NumberOfEigenStates -20 # this will include first 10 conduction bands
XC.Functional   GGA
XC.Authors      PBE
DFTD3 true
Spin non-polarized
# This is causing memory issues, keep it low for now.
Mesh.Cutoff 300 Ry              # Cut off plane waves with kinetic energy higher than this.
MaxSCFIterations 300            # Max number of iterations in the SCF loop.
DM.UseSaveDM true
MinSCFIterations       3
SCF.DM.Tolerance       0.0001
SCF.Mixer.Weight       0.10
SCF.Mixer.History      12
SCF.Mix.First          true
#################################
#                               #
#             Basis             #
#                               #
#################################
#PAO.BasisSize   DZP
PAO.Basis < basis.fdf
#########################################
#					#
#	k-points, Bands, DOS		#
#		  	 		#
#########################################
%block kgrid_Monkhorst_Pack
   1  0  0  0.0
   0  1  0  0.0
   0  0  1  0.0
%endblock kgrid_Monkhorst_Pack
#BandLinesScale ReciprocalLatticeVectors
#%block BandLines
#1   0.6666666667  0.3333333333  0.0000000000  K
#10  0.0000000000  0.0000000000  0.0000000000  Gamma
#10  0.5000000000  0.0000000000  0.0000000000  M
#10  0.6666666667  0.3333333333  0.0000000000  K
#%endblock BandLines
# Local density of states (LDOS)
# %block LocalDensityOfStates
# EF 8.40 8.50 eV
# %endblock LocalDensityOfStates
#########################################
#                                       #
#             Wavefunctions             #
#                                       #
#########################################
#WaveFuncKPointsScale ReciprocalLatticeVectors
#%block WaveFuncKPoints
#0.666 0.333 0.000 from 4375 to 4378 # K wavefuncs 4375 to 4378
#0.000 0.000 0.000 from 4375 to 4378 # Gamma wavefuncs 4375 to 4378
#0.500 0.000 0.000 from 4375 to 4378 # M wavefuncs 4375 to 4378
#%endblock WaveFuncKPoints
#WriteDenchar T
#########################################
#                                       #
#       Geometry Optimisation           #
#                                       #
#########################################
MD.UseSaveXV true
MD.TypeOfRun           CG                  # Conjugate Gradient
MD.NumCGsteps          200                 # Max number of steps
MD.MaxForceTol         0.01    eV/Ang      # 10 meV/Ang
MD.VariableCell        false               # Don't relax cell
MD.MaxCGDispl          0.5 Bohr            # Maximum displacement of any atom
# Fix COM in Z direction only
%block Geometry.Constraints
 center all 0.0 0.0 1.0
%endblock Geometry.Constraints
************************** End of input data file *****************************

reinit: -----------------------------------------------------------------------
reinit: System Name: Graphene
reinit: -----------------------------------------------------------------------
reinit: System Label: Graphene
reinit: -----------------------------------------------------------------------

initatom: Reading input for the pseudopotentials and atomic orbitals ----------
Species number:   1 Atomic number:    6 Label: C
 

---- Processing specs for species: C
Ground state valence configuration:   2s02  2p02
Reading pseudopotential information in PSML from:
  C.psml
PSML file version: 1.1
Using libxc ids:  101 130
GGA--PBE XC_GGA_X_PBE--XC_GGA_C_PBE pb
 Using ATOM defaults for log grid...
PSML uuid: 297821e0-be41-11e7-6802-e1ff7dfff095

---- Pseudopotential check for C 

Pseudized shells:
2s( 2.00) rc: 1.20
2p( 2.00) rc: 1.26
Valence configuration for ps generation: 2s:2p: Total charge:   4.000000
For C, standard SIESTA heuristics set lmxkb to 3
 (one more than the basis l, including polarization orbitals).
Use PS.lmax or PS.KBprojectors blocks to override.
C pseudopotential only contains V_ls up to l=1 -- lmxkb reset.

<basis_specs>
===============================================================================
C                    Z=   6    Mass=  12.011        Charge= 0.99941    
Lmxo=2 Lmxkb= 1    BasisType=split      Semic=F
L=0  Nsemic=0  Cnfigmx=2
          i=1  nzeta=1  polorb=0  (2s)
            splnorm:   0.15000    
               vcte:    132.57    
               rinn:    4.5256    
               qcoe:    0.0000    
               qyuk:    0.0000    
               qwid:   0.10000E-01
                rcs:    6.0009    
            lambdas:    1.0000    
L=1  Nsemic=0  Cnfigmx=2
          i=1  nzeta=1  polorb=0  (2p)
            splnorm:   0.15000    
               vcte:    6.0639    
               rinn:    6.0646    
               qcoe:    0.0000    
               qyuk:    0.0000    
               qwid:   0.10000E-01
                rcs:    6.7108    
            lambdas:    1.0000    
L=2  Nsemic=0  Cnfigmx=3
          i=1  nzeta=1  polorb=0  (3d)
            splnorm:   0.15000    
               vcte:    14.478    
               rinn:    4.3208    
               qcoe:    0.0000    
               qyuk:    0.0000    
               qwid:   0.10000E-01
                rcs:    6.2254    
            lambdas:    1.0000    
-------------------------------------------------------------------------------
L=0  Nkbl=1  erefs: 0.17977+309
L=1  Nkbl=1  erefs: 0.17977+309
===============================================================================
</basis_specs>

atom: Called for C                     (Z =   6)
NOTE: C pseudopotential has channels up to l= 1
NOTE: PAOs with higher l will be generated with V_local

read_vps: Pseudopotential generation method:
read_vps: ONCVPSP-3.Hamann's oncvpsp                        
Valence charge in pseudo generation:    4.00000

read_vps: Pseudopotential includes a core correction:
read_vps: Pseudo-core for xc-correction

xc_check: Exchange-correlation functional:
xc_check: GGA Perdew, Burke & Ernzerhof 1996
Got Vlocal (oncv-fit) from psml data
Choosing vlocal chloc cutoff:  4.139772
qtot up to nchloc:    3.99998844
atom: Maximum radius for chlocal:    4.13977
atom: Maximum radius for r*vlocal+2*Zval:    4.13977
Reading KB projs from C psml data
Using scalar-relativistic projectors in PSML file

PSML: Kleinman-Bylander projectors: 
   l= 0   rc=  1.231096   Ekb= 12.963096
   l= 0   rc=  1.231096   Ekb=  0.771007
   l= 1   rc=  1.294237   Ekb= -8.399923
   l= 1   rc=  1.294237   Ekb= -1.755033

PSML: Total number of  Kleinman-Bylander projectors:   8
atom: -------------------------------------------------------------------------

atom: SANKEY-TYPE ORBITALS:

atom: basis set generated (by rescaling the valence charge)
atom: for a cation of charge   0.9994

SPLIT: Orbitals with angular momentum L= 0

SPLIT: Basis orbitals for state 2s

   izeta = 1
                 lambda =    1.000000
                     rc =    6.099293
                 energy =   -2.079355
                kinetic =    1.090115
    potential(screened) =   -3.169470
       potential(ionic) =   -5.727963

SPLIT: Orbitals with angular momentum L= 1

SPLIT: Basis orbitals for state 2p

   izeta = 1
                 lambda =    1.000000
                     rc =    6.740804
                 energy =   -1.441657
                kinetic =    3.222058
    potential(screened) =   -4.663715
       potential(ionic) =   -7.206130
*Note: V_local used for l= 2

** Using vlocal for PAOs with L= 2

SPLIT: Orbitals with angular momentum L= 2

SPLIT: Basis orbitals for state 3d

   izeta = 1
                 lambda =    1.000000
                     rc =    6.253707
                 energy =    0.017329
                kinetic =    1.197074
    potential(screened) =   -1.179745
       potential(ionic) =   -2.838380
atom: Total number of Sankey-type orbitals:  9

atm_pop: Valence configuration (for local Pseudopot. screening):
 2s( 2.00)                                                            
 2p( 2.00)                                                            
 3d( 0.00)                                                            
Vna: chval, zval:    4.00000   4.00000

Vna:  Cut-off radius for the neutral-atom potential:   6.740804
comcore: Pseudo-core radius Rcore=  1.682861

atom: _________________________________________________________________________

prinput: Basis input 

PAO.BasisType split     

%block ChemicalSpeciesLabel
    1    6 C                       # Species index, atomic number, species label
%endblock ChemicalSpeciesLabel

%block PAO.Basis                 # Define Basis set
# WARNING: This information might be incomplete!
C                     3   0.999            # Label, l-shells, ionic net charge
 n=2   0   1                         # n, l, Nzeta 
   6.099   
   1.000   
 n=2   1   1                         # n, l, Nzeta 
   6.741   
   1.000   
 n=3   2   1                         # n, l, Nzeta 
   6.254   
   1.000   
%endblock PAO.Basis

prinput: ----------------------------------------------------------------------

Dumping basis to NetCDF file C.ion.nc
coor:   Atomic-coordinates input format  =     Cartesian coordinates
coor:                                          (in Angstroms)

siesta: WARNING: XV file not found

siesta: Atomic coordinates (Bohr) and species
siesta:      2.68394   0.00000  34.60839  1        1
siesta:     10.73577   0.00000  34.59487  1        2
siesta:     18.78760   0.00000  34.48950  1        3
siesta:     26.83943   0.00000  34.54447  1        4
siesta:     34.89126   0.00000  34.60314  1        5
siesta:     42.94309   0.00000  34.58063  1        6
siesta:     50.99492   0.00000  34.53049  1        7
siesta:      6.70986   2.32436  34.55060  1        8
siesta:     14.76169   2.32436  34.49492  1        9
siesta:     22.81352   2.32436  34.54784  1       10
siesta:     30.86535   2.32436  34.57813  1       11
siesta:     38.91718   2.32436  34.56459  1       12
siesta:     46.96901   2.32436  34.52228  1       13
siesta:     55.02084   2.32436  34.51390  1       14
siesta:     10.73577   4.64873  34.60159  1       15
siesta:     18.78760   4.64873  34.58193  1       16
siesta:     26.83943   4.64873  34.59216  1       17
siesta:     34.89126   4.64873  34.60757  1       18
siesta:     42.94309   4.64873  34.55300  1       19
siesta:     50.99492   4.64873  34.58528  1       20
siesta:      6.70986   6.97309  34.50962  1       21
siesta:     14.76169   6.97309  34.54187  1       22
siesta:     22.81352   6.97309  34.60128  1       23
siesta:     30.86535   6.97309  34.55538  1       24
siesta:     38.91718   6.97309  34.58436  1       25
siesta:     46.96901   6.97309  34.61119  1       26
siesta:     55.02084   6.97309  34.53671  1       27
siesta:     10.73577   9.29745  34.60015  1       28
siesta:     18.78760   9.29745  34.60278  1       29
siesta:     26.83943   9.29745  34.55987  1       30
siesta:     34.89126   9.29745  34.59290  1       31
siesta:     42.94309   9.29745  34.57205  1       32
siesta:     50.99492   9.29745  34.57752  1       33
siesta:     59.04675   9.29745  34.55263  1       34
siesta:     14.76169  11.62182  34.54476  1       35
siesta:     22.81352  11.62182  34.54615  1       36
siesta:     30.86535  11.62182  34.60718  1       37
siesta:     38.91718  11.62182  34.49111  1       38
siesta:     46.96901  11.62182  34.47103  1       39
siesta:     55.02084  11.62182  34.52088  1       40
siesta:     10.73577  13.94618  34.51094  1       41
siesta:     18.78760  13.94618  34.51606  1       42
siesta:     26.83943  13.94618  34.51474  1       43
siesta:     34.89126  13.94618  34.56199  1       44
siesta:     42.94309  13.94618  34.54435  1       45
siesta:     50.99492  13.94618  34.55468  1       46
siesta:     59.04675  13.94618  34.55628  1       47
siesta:     14.76169  16.27054  34.55074  1       48
siesta:     22.81352  16.27054  34.51796  1       49
siesta:     30.86535  16.27054  34.54507  1       50
siesta:     38.91718  16.27054  34.59216  1       51
siesta:     46.96901  16.27054  34.51121  1       52
siesta:     55.02084  16.27054  34.56168  1       53
siesta:     63.07267  16.27054  34.54069  1       54
siesta:     18.78760  18.59491  34.53284  1       55
siesta:     26.83943  18.59491  34.55423  1       56
siesta:     34.89126  18.59491  34.57390  1       57
siesta:     42.94309  18.59491  34.61079  1       58
siesta:     50.99492  18.59491  34.56336  1       59
siesta:     59.04675  18.59491  34.59259  1       60
siesta:     14.76169  20.91927  34.52428  1       61
siesta:     22.81352  20.91927  34.55622  1       62
siesta:     30.86535  20.91927  34.52462  1       63
siesta:     38.91718  20.91927  34.58243  1       64
siesta:     46.96901  20.91927  34.55936  1       65
siesta:     55.02084  20.91927  34.55272  1       66
siesta:     63.07267  20.91927  34.57725  1       67
siesta:     18.78760  23.24363  34.59443  1       68
siesta:     26.83943  23.24363  34.50181  1       69
siesta:     34.89126  23.24363  34.44734  1       70
siesta:     42.94309  23.24363  34.54771  1       71
siesta:     50.99492  23.24363  34.59111  1       72
siesta:     59.04675  23.24363  34.53286  1       73
siesta:     67.09858  23.24363  34.58295  1       74
siesta:     22.81352  25.56799  34.53774  1       75
siesta:     30.86535  25.56799  34.53462  1       76
siesta:     38.91718  25.56799  34.59960  1       77
siesta:     46.96901  25.56799  34.49416  1       78
siesta:     55.02084  25.56799  34.51376  1       79
siesta:     63.07267  25.56799  34.60566  1       80
siesta:     18.78760  27.89236  34.50607  1       81
siesta:     26.83943  27.89236  34.56230  1       82
siesta:     34.89126  27.89236  34.56658  1       83
siesta:     42.94309  27.89236  34.50601  1       84
siesta:     50.99492  27.89236  34.47304  1       85
siesta:     59.04675  27.89236  34.60319  1       86
siesta:     67.09858  27.89236  34.58199  1       87
siesta:     22.81352  30.21672  34.54325  1       88
siesta:     30.86535  30.21672  34.56119  1       89
siesta:     38.91718  30.21672  34.55145  1       90
siesta:     46.96901  30.21672  34.60988  1       91
siesta:     55.02084  30.21672  34.53850  1       92
siesta:     63.07267  30.21672  34.58239  1       93
siesta:     71.12450  30.21672  34.51207  1       94
siesta:     26.83943  32.54108  34.48147  1       95
siesta:     34.89126  32.54108  34.53911  1       96
siesta:     42.94309  32.54108  34.58152  1       97
siesta:     50.99492  32.54108  34.58380  1       98
siesta:     59.04675  32.54108  34.59914  1       99
siesta:     67.09858  32.54108  34.57423  1      100
siesta:     22.81352  34.86545  34.57859  1      101
siesta:     30.86535  34.86545  34.56315  1      102
siesta:     38.91718  34.86545  34.50819  1      103
siesta:     46.96901  34.86545  34.55317  1      104
siesta:     55.02084  34.86545  34.57919  1      105
siesta:     63.07267  34.86545  34.54024  1      106
siesta:     71.12450  34.86545  34.62000  1      107
siesta:     26.83943  37.18981  34.57956  1      108
siesta:     34.89126  37.18981  34.50815  1      109
siesta:     42.94309  37.18981  34.61930  1      110
siesta:     50.99492  37.18981  34.50293  1      111
siesta:     59.04675  37.18981  34.56539  1      112
siesta:     67.09858  37.18981  34.53468  1      113
siesta:     75.15041  37.18981  34.53376  1      114
siesta:     30.86535  39.51417  34.55626  1      115
siesta:     38.91718  39.51417  34.52272  1      116
siesta:     46.96901  39.51417  34.54303  1      117
siesta:     55.02084  39.51417  34.50702  1      118
siesta:     63.07267  39.51417  34.56063  1      119
siesta:     71.12450  39.51417  34.58308  1      120
siesta:     26.83943  41.83854  34.46715  1      121
siesta:     34.89126  41.83854  34.50811  1      122
siesta:     42.94309  41.83854  34.58254  1      123
siesta:     50.99492  41.83854  34.47020  1      124
siesta:     59.04675  41.83854  34.61864  1      125
siesta:     67.09858  41.83854  34.56511  1      126
siesta:     75.15041  41.83854  34.50834  1      127
siesta:      5.36789   0.00000  34.57902  1      128
siesta:     13.41972   0.00000  34.51698  1      129
siesta:     21.47155   0.00000  34.58083  1      130
siesta:     29.52338   0.00000  34.52567  1      131
siesta:     37.57521   0.00000  34.58151  1      132
siesta:     45.62704   0.00000  34.62691  1      133
siesta:     53.67887   0.00000  34.57033  1      134
siesta:      9.39380   2.32436  34.62426  1      135
siesta:     17.44563   2.32436  34.57849  1      136
siesta:     25.49746   2.32436  34.51068  1      137
siesta:     33.54929   2.32436  34.48191  1      138
siesta:     41.60112   2.32436  34.40847  1      139
siesta:     49.65295   2.32436  34.53770  1      140
siesta:      5.36789   4.64873  34.52121  1      141
siesta:     13.41972   4.64873  34.51943  1      142
siesta:     21.47155   4.64873  34.55074  1      143
siesta:     29.52338   4.64873  34.55972  1      144
siesta:     37.57521   4.64873  34.52344  1      145
siesta:     45.62704   4.64873  34.58630  1      146
siesta:     53.67887   4.64873  34.61776  1      147
siesta:      9.39380   6.97309  34.54084  1      148
siesta:     17.44563   6.97309  34.55981  1      149
siesta:     25.49746   6.97309  34.57228  1      150
siesta:     33.54929   6.97309  34.54863  1      151
siesta:     41.60112   6.97309  34.58398  1      152
siesta:     49.65295   6.97309  34.57693  1      153
siesta:     57.70478   6.97309  34.52933  1      154
siesta:     13.41972   9.29745  34.56537  1      155
siesta:     21.47155   9.29745  34.54082  1      156
siesta:     29.52338   9.29745  34.55795  1      157
siesta:     37.57521   9.29745  34.59926  1      158
siesta:     45.62704   9.29745  34.57879  1      159
siesta:     53.67887   9.29745  34.56845  1      160
siesta:      9.39380  11.62182  34.58157  1      161
siesta:     17.44563  11.62182  34.58903  1      162
siesta:     25.49746  11.62182  34.54840  1      163
siesta:     33.54929  11.62182  34.55909  1      164
siesta:     41.60112  11.62182  34.55023  1      165
siesta:     49.65295  11.62182  34.55597  1      166
siesta:     57.70478  11.62182  34.52314  1      167
siesta:     13.41972  13.94618  34.52512  1      168
siesta:     21.47155  13.94618  34.58291  1      169
siesta:     29.52338  13.94618  34.55388  1      170
siesta:     37.57521  13.94618  34.53223  1      171
siesta:     45.62704  13.94618  34.53858  1      172
siesta:     53.67887  13.94618  34.57640  1      173
siesta:     61.73070  13.94618  34.59576  1      174
siesta:     17.44563  16.27054  34.56094  1      175
siesta:     25.49746  16.27054  34.57658  1      176
siesta:     33.54929  16.27054  34.60230  1      177
siesta:     41.60112  16.27054  34.56255  1      178
siesta:     49.65295  16.27054  34.53197  1      179
siesta:     57.70478  16.27054  34.51595  1      180
siesta:     13.41972  18.59491  34.57242  1      181
siesta:     21.47155  18.59491  34.51973  1      182
siesta:     29.52338  18.59491  34.51755  1      183
siesta:     37.57521  18.59491  34.51273  1      184
siesta:     45.62704  18.59491  34.42687  1      185
siesta:     53.67887  18.59491  34.52832  1      186
siesta:     61.73070  18.59491  34.54769  1      187
siesta:     17.44563  20.91927  34.59531  1      188
siesta:     25.49746  20.91927  34.61778  1      189
siesta:     33.54929  20.91927  34.49491  1      190
siesta:     41.60112  20.91927  34.61181  1      191
siesta:     49.65295  20.91927  34.61405  1      192
siesta:     57.70478  20.91927  34.54751  1      193
siesta:     65.75661  20.91927  34.56318  1      194
siesta:     21.47155  23.24363  34.51196  1      195
siesta:     29.52338  23.24363  34.58630  1      196
siesta:     37.57521  23.24363  34.60854  1      197
siesta:     45.62704  23.24363  34.57488  1      198
siesta:     53.67887  23.24363  34.56289  1      199
siesta:     61.73070  23.24363  34.50790  1      200
siesta:     17.44563  25.56799  34.55123  1      201
siesta:     25.49746  25.56799  34.56900  1      202
siesta:     33.54929  25.56799  34.51713  1      203
siesta:     41.60112  25.56799  34.61126  1      204
siesta:     49.65295  25.56799  34.60967  1      205
siesta:     57.70478  25.56799  34.52367  1      206
siesta:     65.75661  25.56799  34.59282  1      207
siesta:     21.47155  27.89236  34.50374  1      208
siesta:     29.52338  27.89236  34.58269  1      209
siesta:     37.57521  27.89236  34.56423  1      210
siesta:     45.62704  27.89236  34.52621  1      211
siesta:     53.67887  27.89236  34.62730  1      212
siesta:     61.73070  27.89236  34.60463  1      213
siesta:     69.78253  27.89236  34.52785  1      214
siesta:     25.49746  30.21672  34.52107  1      215
siesta:     33.54929  30.21672  34.57793  1      216
siesta:     41.60112  30.21672  34.50923  1      217
siesta:     49.65295  30.21672  34.53819  1      218
siesta:     57.70478  30.21672  34.46062  1      219
siesta:     65.75661  30.21672  34.59416  1      220
siesta:     21.47155  32.54108  34.55328  1      221
siesta:     29.52338  32.54108  34.54094  1      222
siesta:     37.57521  32.54108  34.51657  1      223
siesta:     45.62704  32.54108  34.52482  1      224
siesta:     53.67887  32.54108  34.57658  1      225
siesta:     61.73070  32.54108  34.57049  1      226
siesta:     69.78253  32.54108  34.63078  1      227
siesta:     25.49746  34.86545  34.53115  1      228
siesta:     33.54929  34.86545  34.54171  1      229
siesta:     41.60112  34.86545  34.48322  1      230
siesta:     49.65295  34.86545  34.50419  1      231
siesta:     57.70478  34.86545  34.55869  1      232
siesta:     65.75661  34.86545  34.58186  1      233
siesta:     73.80844  34.86545  34.51504  1      234
siesta:     29.52338  37.18981  34.55303  1      235
siesta:     37.57521  37.18981  34.59175  1      236
siesta:     45.62704  37.18981  34.58408  1      237
siesta:     53.67887  37.18981  34.56833  1      238
siesta:     61.73070  37.18981  34.55292  1      239
siesta:     69.78253  37.18981  34.54270  1      240
siesta:     25.49746  39.51417  34.61194  1      241
siesta:     33.54929  39.51417  34.53680  1      242
siesta:     41.60112  39.51417  34.57299  1      243
siesta:     49.65295  39.51417  34.57789  1      244
siesta:     57.70478  39.51417  34.61908  1      245
siesta:     65.75661  39.51417  34.57684  1      246
siesta:     73.80844  39.51417  34.56591  1      247
siesta:     29.52338  41.83854  34.56414  1      248
siesta:     37.57521  41.83854  34.55396  1      249
siesta:     45.62704  41.83854  34.53869  1      250
siesta:     53.67887  41.83854  34.60483  1      251
siesta:     61.73070  41.83854  34.55636  1      252
siesta:     69.78253  41.83854  34.55972  1      253
siesta:     77.83436  41.83854  34.53926  1      254
siesta:      6.88949   1.72039  41.11960  1      255
siesta:     14.90962   1.00661  40.99052  1      256
siesta:     22.92975   0.29283  40.98528  1      257
siesta:     30.94988  -0.42095  41.07922  1      258
siesta:     38.97001  -1.13473  41.06149  1      259
siesta:     46.99014  -1.84851  41.05647  1      260
siesta:      3.08548   4.39250  40.95868  1      261
siesta:     11.10561   3.67872  41.02555  1      262
siesta:     19.12574   2.96494  41.01659  1      263
siesta:     27.14587   2.25115  41.07759  1      264
siesta:     35.16600   1.53737  40.98009  1      265
siesta:     43.18613   0.82359  41.02107  1      266
siesta:     51.20626   0.10981  41.00135  1      267
siesta:      7.30159   6.35082  41.03751  1      268
siesta:     15.32172   5.63704  41.02277  1      269
siesta:     23.34185   4.92326  41.01452  1      270
siesta:     31.36198   4.20948  41.01061  1      271
siesta:     39.38211   3.49570  41.04438  1      272
siesta:     47.40224   2.78191  41.02402  1      273
siesta:     11.51771   8.30914  41.02952  1      274
siesta:     19.53784   7.59536  41.08601  1      275
siesta:     27.55797   6.88158  41.05803  1      276
siesta:     35.57810   6.16780  40.96636  1      277
siesta:     43.59823   5.45402  41.04266  1      278
siesta:     51.61836   4.74024  41.04239  1      279
siesta:      7.71370  10.98124  40.98785  1      280
siesta:     15.73383  10.26746  41.05374  1      281
siesta:     23.75396   9.55368  41.12278  1      282
siesta:     31.77409   8.83990  41.04718  1      283
siesta:     39.79422   8.12612  41.04550  1      284
siesta:     47.81435   7.41234  41.02077  1      285
siesta:     55.83448   6.69856  41.03774  1      286
siesta:     11.92981  12.93956  41.09990  1      287
siesta:     19.94994  12.22578  41.04192  1      288
siesta:     27.97007  11.51200  41.01457  1      289
siesta:     35.99020  10.79822  41.05003  1      290
siesta:     44.01033  10.08444  41.04914  1      291
siesta:     52.03046   9.37066  41.08229  1      292
siesta:     16.14593  14.89789  41.13119  1      293
siesta:     24.16606  14.18411  41.00228  1      294
siesta:     32.18619  13.47032  41.05592  1      295
siesta:     40.20632  12.75654  41.02670  1      296
siesta:     48.22645  12.04276  41.04022  1      297
siesta:     56.24658  11.32898  41.04742  1      298
siesta:     12.34191  17.56999  41.03003  1      299
siesta:     20.36204  16.85621  41.01608  1      300
siesta:     28.38217  16.14243  41.07972  1      301
siesta:     36.40230  15.42865  41.01077  1      302
siesta:     44.42243  14.71487  41.08400  1      303
siesta:     52.44256  14.00109  40.98432  1      304
siesta:     60.46269  13.28730  41.04949  1      305
siesta:     16.55803  19.52831  41.01607  1      306
siesta:     24.57816  18.81453  41.01867  1      307
siesta:     32.59829  18.10075  40.99597  1      308
siesta:     40.61842  17.38697  41.07593  1      309
siesta:     48.63855  16.67319  41.00073  1      310
siesta:     56.65868  15.95941  41.11516  1      311
siesta:     20.77414  21.48663  41.05130  1      312
siesta:     28.79427  20.77285  41.08315  1      313
siesta:     36.81440  20.05907  41.07614  1      314
siesta:     44.83453  19.34529  40.98888  1      315
siesta:     52.85466  18.63151  41.06781  1      316
siesta:     60.87479  17.91773  40.96980  1      317
siesta:     16.97013  24.15873  41.02991  1      318
siesta:     24.99026  23.44495  41.03453  1      319
siesta:     33.01039  22.73117  41.16140  1      320
siesta:     41.03052  22.01739  41.04170  1      321
siesta:     49.05065  21.30361  41.03061  1      322
siesta:     57.07078  20.58983  40.98301  1      323
siesta:     65.09091  19.87605  41.03314  1      324
siesta:     21.18625  26.11706  41.05331  1      325
siesta:     29.20638  25.40328  41.00392  1      326
siesta:     37.22651  24.68950  40.98170  1      327
siesta:     45.24664  23.97571  40.98284  1      328
siesta:     53.26677  23.26193  40.99629  1      329
siesta:     61.28690  22.54815  41.08162  1      330
siesta:     25.40236  28.07538  41.04630  1      331
siesta:     33.42249  27.36160  41.03276  1      332
siesta:     41.44262  26.64782  41.03370  1      333
siesta:     49.46275  25.93404  41.06768  1      334
siesta:     57.48288  25.22026  41.03392  1      335
siesta:     65.50301  24.50647  40.97997  1      336
siesta:     21.59835  30.74748  41.02221  1      337
siesta:     29.61848  30.03370  40.98568  1      338
siesta:     37.63861  29.31992  41.02161  1      339
siesta:     45.65874  28.60614  41.10891  1      340
siesta:     53.67887  27.89236  40.96563  1      341
siesta:     61.69900  27.17858  41.07334  1      342
siesta:     69.71913  26.46480  40.99042  1      343
siesta:     25.81446  32.70580  41.02475  1      344
siesta:     33.83459  31.99202  40.98697  1      345
siesta:     41.85472  31.27824  41.00484  1      346
siesta:     49.87485  30.56446  41.05213  1      347
siesta:     57.89498  29.85068  41.03430  1      348
siesta:     65.91511  29.13690  41.07145  1      349
siesta:     30.03058  34.66412  41.03886  1      350
siesta:     38.05071  33.95034  40.98835  1      351
siesta:     46.07084  33.23656  41.04679  1      352
siesta:     54.09097  32.52278  41.05916  1      353
siesta:     62.11110  31.80900  41.01898  1      354
siesta:     70.13123  31.09522  41.02562  1      355
siesta:     26.22656  37.33623  41.01613  1      356
siesta:     34.24669  36.62245  41.01715  1      357
siesta:     42.26682  35.90867  41.03733  1      358
siesta:     50.28695  35.19488  40.96122  1      359
siesta:     58.30708  34.48110  41.05293  1      360
siesta:     66.32721  33.76732  41.02493  1      361
siesta:     74.34734  33.05354  41.03789  1      362
siesta:     30.44268  39.29455  40.94724  1      363
siesta:     38.46281  38.58077  40.97689  1      364
siesta:     46.48294  37.86699  41.03883  1      365
siesta:     54.50307  37.15321  41.04027  1      366
siesta:     62.52320  36.43943  41.11628  1      367
siesta:     70.54333  35.72564  40.98749  1      368
siesta:     34.65880  41.25287  41.11367  1      369
siesta:     42.67893  40.53909  41.03490  1      370
siesta:     50.69906  39.82531  41.00118  1      371
siesta:     58.71919  39.11153  41.06448  1      372
siesta:     66.73932  38.39775  41.06626  1      373
siesta:     74.75945  37.68397  41.03526  1      374
siesta:     30.85478  43.92497  41.05633  1      375
siesta:     38.87491  43.21119  40.97823  1      376
siesta:     46.89504  42.49741  40.97750  1      377
siesta:     54.91517  41.78363  41.03526  1      378
siesta:     62.93530  41.06985  41.05621  1      379
siesta:     70.95543  40.35607  41.03095  1      380
siesta:     78.97556  39.64229  40.99942  1      381
siesta:      1.54274   2.19625  40.99612  1      382
siesta:      9.56287   1.48247  40.99986  1      383
siesta:     17.58300   0.76869  41.07200  1      384
siesta:     25.60313   0.05491  41.04672  1      385
siesta:     33.62326  -0.65887  40.99620  1      386
siesta:     41.64339  -1.37266  40.96741  1      387
siesta:     49.66352  -2.08644  41.00345  1      388
siesta:      5.75885   4.15457  41.04140  1      389
siesta:     13.77898   3.44079  40.98954  1      390
siesta:     21.79911   2.72701  41.03500  1      391
siesta:     29.81924   2.01323  41.09023  1      392
siesta:     37.83937   1.29945  41.04775  1      393
siesta:     45.85950   0.58567  41.01558  1      394
siesta:      9.97497   6.11289  41.06360  1      395
siesta:     17.99510   5.39911  41.00971  1      396
siesta:     26.01523   4.68533  40.98878  1      397
siesta:     34.03536   3.97155  40.99917  1      398
siesta:     42.05549   3.25777  41.10709  1      399
siesta:     50.07562   2.54399  41.03567  1      400
siesta:      6.17096   8.78499  41.03620  1      401
siesta:     14.19109   8.07121  41.05667  1      402
siesta:     22.21122   7.35743  41.03755  1      403
siesta:     30.23135   6.64365  41.09376  1      404
siesta:     38.25148   5.92987  41.06078  1      405
siesta:     46.27161   5.21609  41.01061  1      406
siesta:     54.29174   4.50231  41.06089  1      407
siesta:     10.38707  10.74332  41.04930  1      408
siesta:     18.40720  10.02954  41.05678  1      409
siesta:     26.42733   9.31575  41.05687  1      410
siesta:     34.44746   8.60197  41.05849  1      411
siesta:     42.46759   7.88819  41.03385  1      412
siesta:     50.48772   7.17441  41.08471  1      413
siesta:     14.60319  12.70164  41.09299  1      414
siesta:     22.62332  11.98786  40.99094  1      415
siesta:     30.64345  11.27408  41.06835  1      416
siesta:     38.66358  10.56030  41.04004  1      417
siesta:     46.68371   9.84651  41.02963  1      418
siesta:     54.70384   9.13273  41.00612  1      419
siesta:     10.79917  15.37374  40.99603  1      420
siesta:     18.81930  14.65996  41.07660  1      421
siesta:     26.83943  13.94618  41.02877  1      422
siesta:     34.85956  13.23240  40.99028  1      423
siesta:     42.87969  12.51862  41.03053  1      424
siesta:     50.89982  11.80484  41.07005  1      425
siesta:     58.91995  11.09106  41.02755  1      426
siesta:     15.01529  17.33206  41.00329  1      427
siesta:     23.03542  16.61828  41.03886  1      428
siesta:     31.05555  15.90450  41.02682  1      429
siesta:     39.07568  15.19072  41.00692  1      430
siesta:     47.09581  14.47694  41.07560  1      431
siesta:     55.11594  13.76316  40.99728  1      432
siesta:     19.23141  19.29038  41.01247  1      433
siesta:     27.25154  18.57660  41.03924  1      434
siesta:     35.27167  17.86282  41.03369  1      435
siesta:     43.29180  17.14904  41.02306  1      436
siesta:     51.31193  16.43526  41.05363  1      437
siesta:     59.33206  15.72148  41.06879  1      438
siesta:     15.42739  21.96249  41.10434  1      439
siesta:     23.44752  21.24871  40.96812  1      440
siesta:     31.46765  20.53492  41.04228  1      441
siesta:     39.48778  19.82114  40.96814  1      442
siesta:     47.50791  19.10736  41.06328  1      443
siesta:     55.52804  18.39358  41.00031  1      444
siesta:     63.54817  17.67980  41.01260  1      445
siesta:     19.64351  23.92081  41.02638  1      446
siesta:     27.66364  23.20703  41.03916  1      447
siesta:     35.68377  22.49325  40.99746  1      448
siesta:     43.70390  21.77947  40.97045  1      449
siesta:     51.72403  21.06568  41.03667  1      450
siesta:     59.74416  20.35190  40.97712  1      451
siesta:     23.85962  25.87913  41.02761  1      452
siesta:     31.87975  25.16535  41.04445  1      453
siesta:     39.89988  24.45157  41.02614  1      454
siesta:     47.92001  23.73779  41.01724  1      455
siesta:     55.94014  23.02401  41.07569  1      456
siesta:     63.96027  22.31023  41.02381  1      457
siesta:     20.05561  28.55123  41.09137  1      458
siesta:     28.07574  27.83745  40.97206  1      459
siesta:     36.09587  27.12367  41.05031  1      460
siesta:     44.11600  26.40989  41.00263  1      461
siesta:     52.13613  25.69611  41.02506  1      462
siesta:     60.15626  24.98233  41.07909  1      463
siesta:     68.17639  24.26855  41.00725  1      464
siesta:     24.27172  30.50955  41.05029  1      465
siesta:     32.29185  29.79577  41.02830  1      466
siesta:     40.31198  29.08199  41.05460  1      467
siesta:     48.33211  28.36821  41.05813  1      468
siesta:     56.35224  27.65443  41.01547  1      469
siesta:     64.37237  26.94065  41.04379  1      470
siesta:     28.48784  32.46788  41.02660  1      471
siesta:     36.50797  31.75409  41.00429  1      472
siesta:     44.52810  31.04031  41.02864  1      473
siesta:     52.54823  30.32653  41.01581  1      474
siesta:     60.56836  29.61275  41.06271  1      475
siesta:     68.58849  28.89897  40.97966  1      476
siesta:     24.68383  35.13998  41.00810  1      477
siesta:     32.70396  34.42620  41.00792  1      478
siesta:     40.72409  33.71242  41.11100  1      479
siesta:     48.74422  32.99864  41.09144  1      480
siesta:     56.76435  32.28485  41.05533  1      481
siesta:     64.78448  31.57107  41.01496  1      482
siesta:     72.80461  30.85729  41.00679  1      483
siesta:     28.89994  37.09830  41.07710  1      484
siesta:     36.92007  36.38452  41.07060  1      485
siesta:     44.94020  35.67074  41.01934  1      486
siesta:     52.96033  34.95696  41.02300  1      487
siesta:     60.98046  34.24318  41.03414  1      488
siesta:     69.00059  33.52940  40.96590  1      489
siesta:     33.11606  39.05662  41.05870  1      490
siesta:     41.13619  38.34284  41.12386  1      491
siesta:     49.15632  37.62906  40.99228  1      492
siesta:     57.17645  36.91528  41.00826  1      493
siesta:     65.19658  36.20150  40.97456  1      494
siesta:     73.21671  35.48772  41.02362  1      495
siesta:     29.31204  41.72872  41.03000  1      496
siesta:     37.33217  41.01494  41.03255  1      497
siesta:     45.35230  40.30116  41.07218  1      498
siesta:     53.37243  39.58738  40.97920  1      499
siesta:     61.39256  38.87360  40.99286  1      500
siesta:     69.41269  38.15982  41.03178  1      501
siesta:     77.43282  37.44604  41.01023  1      502
siesta:     33.52816  43.68705  41.02256  1      503
siesta:     41.54829  42.97326  41.07142  1      504
siesta:     49.56842  42.25948  41.07337  1      505
siesta:     57.58855  41.54570  41.08546  1      506
siesta:     65.60868  40.83192  40.99484  1      507
siesta:     73.62881  40.11814  41.04494  1      508

siesta: System type = slab      

initatomlists: Number of atoms, orbitals, and projectors:    508  4572  4064

siesta: ******************** Simulation parameters ****************************
siesta:
siesta: The following are some of the parameters of the simulation.
siesta: A complete list of the parameters used, including default values,
siesta: can be found in file out.fdf
siesta:
redata: Spin configuration                          = none
redata: Number of spin components                   = 1
redata: Time-Reversal Symmetry                      = T
redata: Spin spiral                                 = F
redata: Long output                                 =   F
redata: Number of Atomic Species                    =        1
redata: Charge density info will appear in .RHO file
redata: Write Mulliken Pop.                         = NO
redata: Matel table size (NRTAB)                    =     1024
redata: Mesh Cutoff                                 =   300.0000 Ry
redata: Net charge of the system                    =     0.0000 |e|
redata: Min. number of SCF Iter                     =        3
redata: Max. number of SCF Iter                     =      300
redata: SCF convergence failure will abort job
redata: SCF mix quantity                            = Hamiltonian
redata: Mix DM or H after convergence               =   F
redata: Recompute H after scf cycle                 =   F
redata: Mix DM in first SCF step                    =   T
redata: Write Pulay info on disk                    =   F
redata: New DM Occupancy tolerance                  = 0.000000000001
redata: No kicks to SCF
redata: DM Mixing Weight for Kicks                  =     0.5000
redata: Require Harris convergence for SCF          =   F
redata: Harris energy tolerance for SCF             =     0.000100 eV
redata: Require DM convergence for SCF              =   T
redata: DM tolerance for SCF                        =     0.000100
redata: Require EDM convergence for SCF             =   F
redata: EDM tolerance for SCF                       =     0.001000 eV
redata: Require H convergence for SCF               =   T
redata: Hamiltonian tolerance for SCF               =     0.001000 eV
redata: Require (free) Energy convergence for SCF   =   F
redata: (free) Energy tolerance for SCF             =     0.000100 eV
redata: Using DFT-D3 dispersion                     =   T
redata: Using Saved Data (generic)                  =   F
redata: Use continuation files for DM               =   T
redata: Neglect nonoverlap interactions             =   F
redata: Method of Calculation                       = Diagonalization
redata: Electronic Temperature                      =   299.9863 K
redata: Fix the spin of the system                  =   F
redata: Max. number of TDED Iter                    =        1
redata: Number of TDED substeps                     =        3
redata: Dynamics option                             = CG coord. optimization
redata: Variable cell                               =   F
redata: Use continuation files for CG               =   F
redata: Max atomic displ per move                   =     0.2646 Ang
redata: Maximum number of optimization moves        =      200
redata: Force tolerance                             =     0.0100 eV/Ang
mix.SCF: Pulay mixing                            = Pulay
mix.SCF:    Variant                              = stable
mix.SCF:    History steps                        = 12
mix.SCF:    Linear mixing weight                 =     0.100000
mix.SCF:    Mixing weight                        =     0.100000
mix.SCF:    SVD condition                        = 0.1000E-07
redata: Save all siesta data in one NC              =   F
redata: ***********************************************************************

%block SCF.Mixers
  Pulay
%endblock SCF.Mixers

%block SCF.Mixer.Pulay
  # Mixing method
  method pulay
  variant stable

  # Mixing options
  weight 0.1000
  weight.linear 0.1000
  history 12
%endblock SCF.Mixer.Pulay
 
DFT-D3: loading default parameters for functional PBE.
DM_history_depth set to one: no extrapolation allowed by default for geometry relaxation
Size of DM history Fstack: 1
Total number of electrons:  2032.000000
Total ionic charge:  2032.000000

* ProcessorY, Blocksize:    8  64


* Orbital distribution balance (max,min):   128    64

 Kpoints in:            1 . Kpoints trimmed:            1

siesta: k-grid: Number of k-points = 1
siesta: k-points from Monkhorst-Pack grid
siesta: k-cutoff (effective) =    13.861 Ang
siesta: k-point supercell and displacements
siesta: k-grid:     1     0     0      0.000
siesta: k-grid:     0     1     0      0.000
siesta: k-grid:     0     0     1      0.000
 
diag: Algorithm                                     = D&C
diag: Parallel over k                               =   F
diag: Use parallel 2D distribution                  =   T
diag: Parallel block-size                           = 64
diag: Parallel distribution                         =     8 x     8
diag: Used triangular part                          = Lower
diag: Absolute tolerance                            =  0.100E-15
diag: Orthogonalization factor                      =  0.100E-05
diag: Memory factor                                 =  1.0000
 
siesta: Constraint v=[  0.00000,  0.00000,  1.00000] (508): center-dir
  [ 1 -- 508 ]
 
 
ts: **************************************************************
ts: Save H and S matrices                           =    F
ts: Save DM and EDM matrices                        =    F
ts: Only save the overlap matrix S                  =    F
ts: **************************************************************
 
************************ Begin: TS CHECKS AND WARNINGS ************************
************************ End: TS CHECKS AND WARNINGS **************************


                     ====================================
                        Begin CG opt. move =      0
                     ====================================

outcell: Unit cell vectors (Ang):
       27.695492   -1.230000    0.000000
       14.912957   23.370000    0.000000
        0.000000    0.000000   40.000000

outcell: Cell vector modules (Ang)   :   27.722792   27.722792   40.000000
outcell: Cell angles (23,13,12) (deg):     90.0000     90.0000     60.0000
outcell: Cell volume (Ang**3)        :  26623.4638
<dSpData1D:S at geom step 0
  <sparsity:sparsity for geom step 0
    nrows_g=4572 nrows=128 sparsity=.0059 nnzs=122400, refcount: 7>
  <dData1D:(new from dSpData1D) n=122400, refcount: 1>
refcount: 1>
new_DM -- step:     1
Initializing Density Matrix...
 
Attempting to read DM from file... Failed...
DM filled with atomic data:
<dSpData2D:DM initialized from atoms
  <sparsity:sparsity for geom step 0
    nrows_g=4572 nrows=128 sparsity=.0059 nnzs=122400, refcount: 8>
  <dData2D:DM n=122400 m=1, refcount: 1>
refcount: 1>
No. of atoms with KB's overlaping orbs in proc 0. Max # of overlaps:     263     231

InitMesh: MESH = 256 x 256 x 432 = 28311552
InitMesh: Mesh cutoff (required, used) =   300.000   314.229 Ry
New grid distribution [1]: sub = 2
New grid distribution [2]: sub = 2
New grid distribution [3]: sub = 2
Setting up quadratic distribution...

stepf: Fermi-Dirac step function

siesta: Program's energy decomposition (eV):
siesta: Ebs     =    -29676.194770
siesta: Eions   =    143338.147527
siesta: Ena     =     31653.088106
siesta: Ekin    =     55969.976941
siesta: Enl     =     -2517.255009
siesta: Eso     =         0.000000
siesta: Edftu   =         0.000000
siesta: DEna    =      4302.514424
siesta: DUscf   =       275.581961
siesta: DUext   =         0.000000
siesta: Ex      =    -26776.375049
siesta: Ec      =     -2582.319562
siesta: Exc     =    -29358.694610
siesta: EbV     =         0.000000
siesta: eta*DQ  =         0.000000
siesta: Emadel  =         0.000000
siesta: Emeta   =         0.000000
siesta: Emolmec =         0.000000
siesta: Ekinion =         0.000000
siesta: Eharris =    -85021.766033
siesta: Etot    =    -83012.935715
siesta: FreeEng =    -83012.935715

        iscf     Eharris(eV)        E_KS(eV)     FreeEng(eV)     dDmax    Ef(eV) dHmax(eV)
   scf:    1   -85021.766033   -83012.935715   -83012.935715  1.204133 -1.365533  4.755533
timer: Routine,Calls,Time,% = IterSCF        1       4.690  43.58
   scf:    2   -83035.401614   -83024.316159   -83024.316159  0.009175 -1.735728  3.999981
   scf:    3   -83076.808556   -83054.160800   -83054.160800  0.048873 -3.712888  0.305955
   scf:    4   -83055.254002   -83054.810687   -83054.810687  0.008861 -3.976138  0.161087
   scf:    5   -83054.790391   -83054.838223   -83054.838223  0.002298 -3.875036  0.128082
   scf:    6   -83054.855601   -83054.857444   -83054.857444  0.001619 -3.946095  0.039854
   scf:    7   -83054.842937   -83054.855285   -83054.855285  0.001100 -3.916893  0.064557
   scf:    8   -83054.866448   -83054.862141   -83054.862141  0.000467 -3.938676  0.018041
   scf:    9   -83054.862596   -83054.862486   -83054.862486  0.000290 -3.949652  0.005006
   scf:   10   -83054.862490   -83054.862510   -83054.862510  0.000141 -3.944705  0.003489
   scf:   11   -83054.862559   -83054.862539   -83054.862539  0.000063 -3.947041  0.000429

SCF Convergence by DM+H criterion
max |DM_out - DM_in|         :     0.0000632940
max |H_out - H_in|      (eV) :     0.0004289017
SCF cycle converged after 11 iterations

Using DM_out to compute the final energy and forces
No. of atoms with KB's overlaping orbs in proc 0. Max # of overlaps:     263     231
System symmetry is of type slab but no DFTD3.Periodic list was found. Attempting to guess symmetry for D3.
Could not guess the right amount of periodicity directions for D3.
Enabling periodicity on all directions.

siesta: E_KS(eV) =           -83105.3969

siesta: E_KS - E_eggbox =    -83105.3969

siesta: Atomic forces (eV/Ang):
----------------------------------------
   Tot    0.001058   -0.001635   -0.002879
----------------------------------------
   Max    1.055103
   Res    0.197636    sqrt( Sum f_i^2 / 3N )
----------------------------------------
   Max    1.055103    constrained

Stress tensor Voigt[x,y,z,yz,xz,xy] (kbar):      -25.71      -25.72       -4.60       -0.00        0.00        0.00
(Free)E + p*V (eV/cell)   -82795.0439
Target enthalpy (eV/cell)   -83105.3969

                     ====================================
                        Begin CG opt. move =      1
                     ====================================

outcell: Unit cell vectors (Ang):
       27.695492   -1.230000    0.000000
       14.912957   23.370000    0.000000
        0.000000    0.000000   40.000000

outcell: Cell vector modules (Ang)   :   27.722792   27.722792   40.000000
outcell: Cell angles (23,13,12) (deg):     90.0000     90.0000     60.0000
outcell: Cell volume (Ang**3)        :  26623.4638
<dSpData1D:S at geom step 1
  <sparsity:sparsity for geom step 1
    nrows_g=4572 nrows=128 sparsity=.0059 nnzs=122301, refcount: 7>
  <dData1D:(new from dSpData1D) n=122301, refcount: 1>
refcount: 1>
new_DM -- step:     2
Re-using DM from previous geometries...
Number of DMs in history: 1
 DM extrapolation coefficients: 
1   1.00000
New DM after history re-use:
<dSpData2D:SpM extrapolated using coords
  <sparsity:sparsity for geom step 1
    nrows_g=4572 nrows=128 sparsity=.0059 nnzs=122301, refcount: 9>
  <dData2D:(temp array for extrapolation) n=122301 m=1, refcount: 1>
refcount: 1>
No. of atoms with KB's overlaping orbs in proc 0. Max # of overlaps:     260     231

InitMesh: MESH = 256 x 256 x 432 = 28311552
InitMesh: Mesh cutoff (required, used) =   300.000   314.229 Ry
New grid distribution [1]: sub = 2
New grid distribution [2]: sub = 2
New grid distribution [3]: sub = 2
Setting up quadratic distribution...

        iscf     Eharris(eV)        E_KS(eV)     FreeEng(eV)     dDmax    Ef(eV) dHmax(eV)
   scf:    1   -83107.020768   -83106.546453   -83106.546453  0.020147 -3.948078  0.438048
   scf:    2   -83102.708141   -83105.351852   -83105.351852  0.016314 -3.946602  2.330161
   scf:    3   -83106.751279   -83106.586134   -83106.586134  0.013664 -3.946218  0.042564
   scf:    4   -83106.589086   -83106.587839   -83106.587839  0.000651 -3.945929  0.015918
   scf:    5   -83106.589014   -83106.588459   -83106.588459  0.000298 -3.945733  0.009056
   scf:    6   -83106.589016   -83106.588761   -83106.588761  0.000309 -3.945576  0.003200
   scf:    7   -83106.588813   -83106.588790   -83106.588790  0.000090 -3.945533  0.001368
   scf:    8   -83106.588797   -83106.588794   -83106.588794  0.000029 -3.945529  0.000458

SCF Convergence by DM+H criterion
max |DM_out - DM_in|         :     0.0000293421
max |H_out - H_in|      (eV) :     0.0004580845
SCF cycle converged after 8 iterations

Using DM_out to compute the final energy and forces
No. of atoms with KB's overlaping orbs in proc 0. Max # of overlaps:     260     231
System symmetry is of type slab but no DFTD3.Periodic list was found. Attempting to guess symmetry for D3.
Could not guess the right amount of periodicity directions for D3.
Enabling periodicity on all directions.

siesta: E_KS(eV) =           -83106.5782

siesta: Atomic forces (eV/Ang):
----------------------------------------
   Tot   -0.000891    0.000012    0.000137
----------------------------------------
   Max    0.323145
   Res    0.062845    sqrt( Sum f_i^2 / 3N )
----------------------------------------
   Max    0.323145    constrained

Stress tensor Voigt[x,y,z,yz,xz,xy] (kbar):      -25.82      -25.81       -4.74       -0.00        0.00        0.01
(Free)E + p*V (eV/cell)   -82794.3641
Target enthalpy (eV/cell)   -83106.5782

                     ====================================
                        Begin CG opt. move =      2
                     ====================================

outcell: Unit cell vectors (Ang):
       27.695492   -1.230000    0.000000
       14.912957   23.370000    0.000000
        0.000000    0.000000   40.000000

outcell: Cell vector modules (Ang)   :   27.722792   27.722792   40.000000
outcell: Cell angles (23,13,12) (deg):     90.0000     90.0000     60.0000
outcell: Cell volume (Ang**3)        :  26623.4638
<dSpData1D:S at geom step 2
  <sparsity:sparsity for geom step 2
    nrows_g=4572 nrows=128 sparsity=.0059 nnzs=122287, refcount: 7>
  <dData1D:(new from dSpData1D) n=122287, refcount: 1>
refcount: 1>
new_DM -- step:     3
Re-using DM from previous geometries...
Number of DMs in history: 1
 DM extrapolation coefficients: 
1   1.00000
New DM after history re-use:
<dSpData2D:SpM extrapolated using coords
  <sparsity:sparsity for geom step 2
    nrows_g=4572 nrows=128 sparsity=.0059 nnzs=122287, refcount: 9>
  <dData2D:(temp array for extrapolation) n=122287 m=1, refcount: 1>
refcount: 1>
No. of atoms with KB's overlaping orbs in proc 0. Max # of overlaps:     258     231

InitMesh: MESH = 256 x 256 x 432 = 28311552
InitMesh: Mesh cutoff (required, used) =   300.000   314.229 Ry
New grid distribution [1]: sub = 2
New grid distribution [2]: sub = 2
New grid distribution [3]: sub = 2
Setting up quadratic distribution...

        iscf     Eharris(eV)        E_KS(eV)     FreeEng(eV)     dDmax    Ef(eV) dHmax(eV)
   scf:    1   -83103.732311   -83104.058871   -83104.058871  0.032494 -3.941900  2.039564
   scf:    2   -83007.889433   -83073.912283   -83073.912283  0.081028 -3.933960 11.259122
   scf:    3   -83108.719441   -83104.903885   -83104.903885  0.068368 -3.931524  0.241565
   scf:    4   -83104.924922   -83104.920181   -83104.920181  0.003109 -3.932187  0.072493
   scf:    5   -83104.923528   -83104.922715   -83104.922715  0.000516 -3.931954  0.027540
   scf:    6   -83104.924382   -83104.923653   -83104.923653  0.000303 -3.932193  0.013534
   scf:    7   -83104.924842   -83104.924297   -83104.924297  0.000452 -3.947693  0.004939
   scf:    8   -83104.924412   -83104.924362   -83104.924362  0.000131 -3.947726  0.002033
   scf:    9   -83104.924375   -83104.924370   -83104.924370  0.000039 -3.947738  0.000702

SCF Convergence by DM+H criterion
max |DM_out - DM_in|         :     0.0000387703
max |H_out - H_in|      (eV) :     0.0007024866
SCF cycle converged after 9 iterations

Using DM_out to compute the final energy and forces
No. of atoms with KB's overlaping orbs in proc 0. Max # of overlaps:     258     231
System symmetry is of type slab but no DFTD3.Periodic list was found. Attempting to guess symmetry for D3.
Could not guess the right amount of periodicity directions for D3.
Enabling periodicity on all directions.

siesta: E_KS(eV) =           -83104.9124

siesta: Atomic forces (eV/Ang):
----------------------------------------
   Tot   -0.001401    0.001852    0.001907
----------------------------------------
   Max    1.366603
   Res    0.270380    sqrt( Sum f_i^2 / 3N )
----------------------------------------
   Max    1.366603    constrained

Stress tensor Voigt[x,y,z,yz,xz,xy] (kbar):      -25.79      -25.75       -4.52       -0.01        0.00        0.01
(Free)E + p*V (eV/cell)   -82794.3454
Target enthalpy (eV/cell)   -83104.9124

                     ====================================
                        Begin CG opt. move =      3
                     ====================================

outcell: Unit cell vectors (Ang):
       27.695492   -1.230000    0.000000
       14.912957   23.370000    0.000000
        0.000000    0.000000   40.000000

outcell: Cell vector modules (Ang)   :   27.722792   27.722792   40.000000
outcell: Cell angles (23,13,12) (deg):     90.0000     90.0000     60.0000
outcell: Cell volume (Ang**3)        :  26623.4638
<dSpData1D:S at geom step 3
  <sparsity:sparsity for geom step 3
    nrows_g=4572 nrows=128 sparsity=.0059 nnzs=122327, refcount: 7>
  <dData1D:(new from dSpData1D) n=122327, refcount: 1>
refcount: 1>
new_DM -- step:     4
Re-using DM from previous geometries...
Number of DMs in history: 1
 DM extrapolation coefficients: 
1   1.00000
New DM after history re-use:
<dSpData2D:SpM extrapolated using coords
  <sparsity:sparsity for geom step 3
    nrows_g=4572 nrows=128 sparsity=.0059 nnzs=122327, refcount: 9>
  <dData2D:(temp array for extrapolation) n=122327 m=1, refcount: 1>
refcount: 1>
No. of atoms with KB's overlaping orbs in proc 0. Max # of overlaps:     260     231

InitMesh: MESH = 256 x 256 x 432 = 28311552
InitMesh: Mesh cutoff (required, used) =   300.000   314.229 Ry
New grid distribution [1]: sub = 2
New grid distribution [2]: sub = 2
New grid distribution [3]: sub = 2
Setting up quadratic distribution...

        iscf     Eharris(eV)        E_KS(eV)     FreeEng(eV)     dDmax    Ef(eV) dHmax(eV)
   scf:    1   -83107.132480   -83106.435984   -83106.435984  0.028530 -3.953083  0.816665
   scf:    2   -83093.334311   -83102.377922   -83102.377922  0.036988 -3.950045  3.997882
   scf:    3   -83107.146510   -83106.589520   -83106.589520  0.030568 -3.947661  0.118786
   scf:    4   -83106.600778   -83106.596587   -83106.596587  0.002302 -3.947323  0.024043
   scf:    5   -83106.598959   -83106.597882   -83106.597882  0.000564 -3.947132  0.016086
   scf:    6   -83106.599062   -83106.598523   -83106.598523  0.000372 -3.947020  0.007962
   scf:    7   -83106.598855   -83106.598709   -83106.598709  0.000234 -3.946930  0.002921
   scf:    8   -83106.598756   -83106.598735   -83106.598735  0.000080 -3.946922  0.001011
   scf:    9   -83106.598741   -83106.598739   -83106.598739  0.000041 -3.946925  0.000447

SCF Convergence by DM+H criterion
max |DM_out - DM_in|         :     0.0000405687
max |H_out - H_in|      (eV) :     0.0004471512
SCF cycle converged after 9 iterations

Using DM_out to compute the final energy and forces
No. of atoms with KB's overlaping orbs in proc 0. Max # of overlaps:     260     231
System symmetry is of type slab but no DFTD3.Periodic list was found. Attempting to guess symmetry for D3.
Could not guess the right amount of periodicity directions for D3.
Enabling periodicity on all directions.

siesta: E_KS(eV) =           -83106.6090

siesta: Atomic forces (eV/Ang):
----------------------------------------
   Tot   -0.002119    0.000808    0.000557
----------------------------------------
   Max    0.281507
   Res    0.064526    sqrt( Sum f_i^2 / 3N )
----------------------------------------
   Max    0.281503    constrained

Stress tensor Voigt[x,y,z,yz,xz,xy] (kbar):      -25.83      -25.82       -4.74       -0.00        0.00        0.01
(Free)E + p*V (eV/cell)   -82794.2904
Target enthalpy (eV/cell)   -83106.6090

cgvc: Finished line minimization    1.  Mean atomic displacement =    0.0264

                     ====================================
                        Begin CG opt. move =      4
                     ====================================

outcell: Unit cell vectors (Ang):
       27.695492   -1.230000    0.000000
       14.912957   23.370000    0.000000
        0.000000    0.000000   40.000000

outcell: Cell vector modules (Ang)   :   27.722792   27.722792   40.000000
outcell: Cell angles (23,13,12) (deg):     90.0000     90.0000     60.0000
outcell: Cell volume (Ang**3)        :  26623.4638
<dSpData1D:S at geom step 4
  <sparsity:sparsity for geom step 4
    nrows_g=4572 nrows=128 sparsity=.0059 nnzs=123560, refcount: 7>
  <dData1D:(new from dSpData1D) n=123560, refcount: 1>
refcount: 1>
new_DM -- step:     5
Re-using DM from previous geometries...
Number of DMs in history: 1
 DM extrapolation coefficients: 
1   1.00000
New DM after history re-use:
<dSpData2D:SpM extrapolated using coords
  <sparsity:sparsity for geom step 4
    nrows_g=4572 nrows=128 sparsity=.0059 nnzs=123560, refcount: 9>
  <dData2D:(temp array for extrapolation) n=123560 m=1, refcount: 1>
refcount: 1>
No. of atoms with KB's overlaping orbs in proc 0. Max # of overlaps:     264     238

InitMesh: MESH = 256 x 256 x 432 = 28311552
InitMesh: Mesh cutoff (required, used) =   300.000   314.229 Ry
New grid distribution [1]: sub = 2
New grid distribution [2]: sub = 2
New grid distribution [3]: sub = 2
Setting up quadratic distribution...

        iscf     Eharris(eV)        E_KS(eV)     FreeEng(eV)     dDmax    Ef(eV) dHmax(eV)
   scf:    1   -83104.191575   -83104.847521   -83104.847521  0.024760 -3.943007  0.738619
   scf:    2   -83100.740580   -83103.729039   -83103.729039  0.076695 -3.937763  1.895763
   scf:    3   -83105.173499   -83105.056295   -83105.056295  0.059800 -3.941965  0.207631
   scf:    4   -83105.108319   -83105.088818   -83105.088818  0.007437 -3.942033  0.053080
   scf:    5   -83105.096047   -83105.093056   -83105.093056  0.001334 -3.942176  0.022094
   scf:    6   -83105.095375   -83105.094329   -83105.094329  0.000468 -3.942193  0.007036
   scf:    7   -83105.094713   -83105.094536   -83105.094536  0.000229 -3.942187  0.004829
   scf:    8   -83105.094634   -83105.094592   -83105.094592  0.000171 -3.942175  0.001152
   scf:    9   -83105.094605   -83105.094600   -83105.094600  0.000050 -3.942163  0.000676

SCF Convergence by DM+H criterion
max |DM_out - DM_in|         :     0.0000496288
max |H_out - H_in|      (eV) :     0.0006756409
SCF cycle converged after 9 iterations

Using DM_out to compute the final energy and forces
No. of atoms with KB's overlaping orbs in proc 0. Max # of overlaps:     264     238
System symmetry is of type slab but no DFTD3.Periodic list was found. Attempting to guess symmetry for D3.
Could not guess the right amount of periodicity directions for D3.
Enabling periodicity on all directions.

siesta: E_KS(eV) =           -83105.0604

siesta: Atomic forces (eV/Ang):
----------------------------------------
   Tot    0.001165    0.000825   -0.002673
----------------------------------------
   Max    2.664748
   Res    0.489255    sqrt( Sum f_i^2 / 3N )
----------------------------------------
   Max    2.664745    constrained

Stress tensor Voigt[x,y,z,yz,xz,xy] (kbar):      -25.97      -26.22       -4.71        0.00        0.00       -0.07
(Free)E + p*V (eV/cell)   -82789.8845
Target enthalpy (eV/cell)   -83105.0604

                     ====================================
                        Begin CG opt. move =      5
                     ====================================

outcell: Unit cell vectors (Ang):
       27.695492   -1.230000    0.000000
       14.912957   23.370000    0.000000
        0.000000    0.000000   40.000000

outcell: Cell vector modules (Ang)   :   27.722792   27.722792   40.000000
outcell: Cell angles (23,13,12) (deg):     90.0000     90.0000     60.0000
outcell: Cell volume (Ang**3)        :  26623.4638
<dSpData1D:S at geom step 5
  <sparsity:sparsity for geom step 5
    nrows_g=4572 nrows=128 sparsity=.0058 nnzs=122283, refcount: 7>
  <dData1D:(new from dSpData1D) n=122283, refcount: 1>
refcount: 1>
new_DM -- step:     6
Re-using DM from previous geometries...
Number of DMs in history: 1
 DM extrapolation coefficients: 
1   1.00000
New DM after history re-use:
<dSpData2D:SpM extrapolated using coords
  <sparsity:sparsity for geom step 5
    nrows_g=4572 nrows=128 sparsity=.0058 nnzs=122283, refcount: 9>
  <dData2D:(temp array for extrapolation) n=122283 m=1, refcount: 1>
refcount: 1>
No. of atoms with KB's overlaping orbs in proc 0. Max # of overlaps:     258     231

InitMesh: MESH = 256 x 256 x 432 = 28311552
InitMesh: Mesh cutoff (required, used) =   300.000   314.229 Ry
New grid distribution [1]: sub = 2
New grid distribution [2]: sub = 2
New grid distribution [3]: sub = 2
Setting up quadratic distribution...

        iscf     Eharris(eV)        E_KS(eV)     FreeEng(eV)     dDmax    Ef(eV) dHmax(eV)
   scf:    1   -83106.714336   -83106.490613   -83106.490613  0.020587 -3.946653  0.365904
   scf:    2   -83104.415262   -83105.944217   -83105.944217  0.048388 -3.944697  1.116628
   scf:    3   -83106.677839   -83106.618622   -83106.618622  0.037455 -3.947316  0.134212
   scf:    4   -83106.649299   -83106.638118   -83106.638118  0.005419 -3.947417  0.036686
   scf:    5   -83106.642027   -83106.640331   -83106.640331  0.000966 -3.947575  0.016692
   scf:    6   -83106.641829   -83106.641151   -83106.641151  0.000314 -3.947658  0.007908
   scf:    7   -83106.641439   -83106.641314   -83106.641314  0.000313 -3.947686  0.002034
   scf:    8   -83106.641342   -83106.641329   -83106.641329  0.000076 -3.947697  0.000991

SCF Convergence by DM+H criterion
max |DM_out - DM_in|         :     0.0000763584
max |H_out - H_in|      (eV) :     0.0009909927
SCF cycle converged after 8 iterations

Using DM_out to compute the final energy and forces
No. of atoms with KB's overlaping orbs in proc 0. Max # of overlaps:     258     231
System symmetry is of type slab but no DFTD3.Periodic list was found. Attempting to guess symmetry for D3.
Could not guess the right amount of periodicity directions for D3.
Enabling periodicity on all directions.

siesta: E_KS(eV) =           -83106.6703

siesta: Atomic forces (eV/Ang):
----------------------------------------
   Tot   -0.000517   -0.000685   -0.000135
----------------------------------------
   Max    0.242704
   Res    0.060722    sqrt( Sum f_i^2 / 3N )
----------------------------------------
   Max    0.242705    constrained

Stress tensor Voigt[x,y,z,yz,xz,xy] (kbar):      -25.82      -25.85       -4.74       -0.00        0.00       -0.00
(Free)E + p*V (eV/cell)   -82794.1977
Target enthalpy (eV/cell)   -83106.6703

cgvc: Finished line minimization    2.  Mean atomic displacement =    0.0043

                     ====================================
                        Begin CG opt. move =      6
                     ====================================

outcell: Unit cell vectors (Ang):
       27.695492   -1.230000    0.000000
       14.912957   23.370000    0.000000
        0.000000    0.000000   40.000000

outcell: Cell vector modules (Ang)   :   27.722792   27.722792   40.000000
outcell: Cell angles (23,13,12) (deg):     90.0000     90.0000     60.0000
outcell: Cell volume (Ang**3)        :  26623.4638
<dSpData1D:S at geom step 6
  <sparsity:sparsity for geom step 6
    nrows_g=4572 nrows=128 sparsity=.0058 nnzs=122274, refcount: 7>
  <dData1D:(new from dSpData1D) n=122274, refcount: 1>
refcount: 1>
new_DM -- step:     7
Re-using DM from previous geometries...
Number of DMs in history: 1
 DM extrapolation coefficients: 
1   1.00000
New DM after history re-use:
<dSpData2D:SpM extrapolated using coords
  <sparsity:sparsity for geom step 6
    nrows_g=4572 nrows=128 sparsity=.0058 nnzs=122274, refcount: 9>
  <dData2D:(temp array for extrapolation) n=122274 m=1, refcount: 1>
refcount: 1>
No. of atoms with KB's overlaping orbs in proc 0. Max # of overlaps:     258     231

InitMesh: MESH = 256 x 256 x 432 = 28311552
InitMesh: Mesh cutoff (required, used) =   300.000   314.229 Ry
New grid distribution [1]: sub = 2
New grid distribution [2]: sub = 2
New grid distribution [3]: sub = 2
Setting up quadratic distribution...

        iscf     Eharris(eV)        E_KS(eV)     FreeEng(eV)     dDmax    Ef(eV) dHmax(eV)
   scf:    1   -83106.774561   -83106.739534   -83106.739534  0.007824 -3.952881  0.027165
   scf:    2   -83106.728094   -83106.736629   -83106.736629  0.002797 -3.953047  0.071197
   scf:    3   -83106.740688   -83106.740384   -83106.740384  0.002157 -3.952882  0.006954
   scf:    4   -83106.740645   -83106.740537   -83106.740537  0.000242 -3.952854  0.003867
   scf:    5   -83106.740603   -83106.740573   -83106.740573  0.000082 -3.952847  0.001528
   scf:    6   -83106.740589   -83106.740582   -83106.740582  0.000046 -3.952847  0.000574

SCF Convergence by DM+H criterion
max |DM_out - DM_in|         :     0.0000461137
max |H_out - H_in|      (eV) :     0.0005736942
SCF cycle converged after 6 iterations

Using DM_out to compute the final energy and forces
No. of atoms with KB's overlaping orbs in proc 0. Max # of overlaps:     258     231
System symmetry is of type slab but no DFTD3.Periodic list was found. Attempting to guess symmetry for D3.
Could not guess the right amount of periodicity directions for D3.
Enabling periodicity on all directions.

siesta: E_KS(eV) =           -83106.7333

siesta: Atomic forces (eV/Ang):
----------------------------------------
   Tot   -0.000878   -0.000536    0.000371
----------------------------------------
   Max    0.195870
   Res    0.035376    sqrt( Sum f_i^2 / 3N )
----------------------------------------
   Max    0.195872    constrained

Stress tensor Voigt[x,y,z,yz,xz,xy] (kbar):      -25.84      -25.85       -4.74       -0.00        0.00        0.00
(Free)E + p*V (eV/cell)   -82794.1449
Target enthalpy (eV/cell)   -83106.7333

                     ====================================
                        Begin CG opt. move =      7
                     ====================================

outcell: Unit cell vectors (Ang):
       27.695492   -1.230000    0.000000
       14.912957   23.370000    0.000000
        0.000000    0.000000   40.000000

outcell: Cell vector modules (Ang)   :   27.722792   27.722792   40.000000
outcell: Cell angles (23,13,12) (deg):     90.0000     90.0000     60.0000
outcell: Cell volume (Ang**3)        :  26623.4638
<dSpData1D:S at geom step 7
  <sparsity:sparsity for geom step 7
    nrows_g=4572 nrows=128 sparsity=.0059 nnzs=122284, refcount: 7>
  <dData1D:(new from dSpData1D) n=122284, refcount: 1>
refcount: 1>
new_DM -- step:     8
Re-using DM from previous geometries...
Number of DMs in history: 1
 DM extrapolation coefficients: 
1   1.00000
New DM after history re-use:
<dSpData2D:SpM extrapolated using coords
  <sparsity:sparsity for geom step 7
    nrows_g=4572 nrows=128 sparsity=.0059 nnzs=122284, refcount: 9>
  <dData2D:(temp array for extrapolation) n=122284 m=1, refcount: 1>
refcount: 1>
No. of atoms with KB's overlaping orbs in proc 0. Max # of overlaps:     258     231

InitMesh: MESH = 256 x 256 x 432 = 28311552
InitMesh: Mesh cutoff (required, used) =   300.000   314.229 Ry
New grid distribution [1]: sub = 2
New grid distribution [2]: sub = 2
New grid distribution [3]: sub = 2
Setting up quadratic distribution...

        iscf     Eharris(eV)        E_KS(eV)     FreeEng(eV)     dDmax    Ef(eV) dHmax(eV)
   scf:    1   -83106.804275   -83106.746780   -83106.746780  0.005295 -3.943333  0.052331
   scf:    2   -83106.712264   -83106.737648   -83106.737648  0.004712 -3.944129  0.151546
   scf:    3   -83106.749769   -83106.748887   -83106.748887  0.003695 -3.943412  0.011571
   scf:    4   -83106.749604   -83106.749306   -83106.749306  0.000394 -3.943388  0.006329
   scf:    5   -83106.749479   -83106.749401   -83106.749401  0.000127 -3.943393  0.002712
   scf:    6   -83106.749449   -83106.749428   -83106.749428  0.000084 -3.943405  0.000985

SCF Convergence by DM+H criterion
max |DM_out - DM_in|         :     0.0000840530
max |H_out - H_in|      (eV) :     0.0009851371
SCF cycle converged after 6 iterations

Using DM_out to compute the final energy and forces
No. of atoms with KB's overlaping orbs in proc 0. Max # of overlaps:     258     231
System symmetry is of type slab but no DFTD3.Periodic list was found. Attempting to guess symmetry for D3.
Could not guess the right amount of periodicity directions for D3.
Enabling periodicity on all directions.

siesta: E_KS(eV) =           -83106.7381

siesta: Atomic forces (eV/Ang):
----------------------------------------
   Tot   -0.001933   -0.001140   -0.000773
----------------------------------------
   Max    0.195706
   Res    0.056915    sqrt( Sum f_i^2 / 3N )
----------------------------------------
   Max    0.195703    constrained

Stress tensor Voigt[x,y,z,yz,xz,xy] (kbar):      -25.87      -25.85       -4.73       -0.00        0.00        0.01
(Free)E + p*V (eV/cell)   -82794.0715
Target enthalpy (eV/cell)   -83106.7381

                     ====================================
                        Begin CG opt. move =      8
                     ====================================

outcell: Unit cell vectors (Ang):
       27.695492   -1.230000    0.000000
       14.912957   23.370000    0.000000
        0.000000    0.000000   40.000000

outcell: Cell vector modules (Ang)   :   27.722792   27.722792   40.000000
outcell: Cell angles (23,13,12) (deg):     90.0000     90.0000     60.0000
outcell: Cell volume (Ang**3)        :  26623.4638
<dSpData1D:S at geom step 8
  <sparsity:sparsity for geom step 8
    nrows_g=4572 nrows=128 sparsity=.0059 nnzs=122284, refcount: 7>
  <dData1D:(new from dSpData1D) n=122284, refcount: 1>
refcount: 1>
new_DM -- step:     9
Re-using DM from previous geometries...
Number of DMs in history: 1
 DM extrapolation coefficients: 
1   1.00000
New DM after history re-use:
<dSpData2D:SpM extrapolated using coords
  <sparsity:sparsity for geom step 8
    nrows_g=4572 nrows=128 sparsity=.0059 nnzs=122284, refcount: 9>
  <dData2D:(temp array for extrapolation) n=122284 m=1, refcount: 1>
refcount: 1>
No. of atoms with KB's overlaping orbs in proc 0. Max # of overlaps:     258     231

InitMesh: MESH = 256 x 256 x 432 = 28311552
InitMesh: Mesh cutoff (required, used) =   300.000   314.229 Ry
New grid distribution [1]: sub = 2
New grid distribution [2]: sub = 2
New grid distribution [3]: sub = 2
Setting up quadratic distribution...

        iscf     Eharris(eV)        E_KS(eV)     FreeEng(eV)     dDmax    Ef(eV) dHmax(eV)
   scf:    1   -83106.735859   -83106.744922   -83106.744922  0.003463 -3.940807  0.017466
   scf:    2   -83106.740065   -83106.743701   -83106.743701  0.001783 -3.940683  0.043879
   scf:    3   -83106.745437   -83106.745303   -83106.745303  0.001369 -3.940788  0.005195
   scf:    4   -83106.745429   -83106.745375   -83106.745375  0.000144 -3.940793  0.002891
   scf:    5   -83106.745414   -83106.745397   -83106.745397  0.000068 -3.940788  0.000947

SCF Convergence by DM+H criterion
max |DM_out - DM_in|         :     0.0000683282
max |H_out - H_in|      (eV) :     0.0009472977
SCF cycle converged after 5 iterations

Using DM_out to compute the final energy and forces
No. of atoms with KB's overlaping orbs in proc 0. Max # of overlaps:     258     231
System symmetry is of type slab but no DFTD3.Periodic list was found. Attempting to guess symmetry for D3.
Could not guess the right amount of periodicity directions for D3.
Enabling periodicity on all directions.

siesta: E_KS(eV) =           -83106.7506

siesta: Atomic forces (eV/Ang):
----------------------------------------
   Tot   -0.002094   -0.001178    0.000239
----------------------------------------
   Max    0.156524
   Res    0.037882    sqrt( Sum f_i^2 / 3N )
----------------------------------------
   Max    0.156528    constrained

Stress tensor Voigt[x,y,z,yz,xz,xy] (kbar):      -25.86      -25.85       -4.74       -0.00        0.00        0.01
(Free)E + p*V (eV/cell)   -82794.1035
Target enthalpy (eV/cell)   -83106.7506

cgvc: Finished line minimization    3.  Mean atomic displacement =    0.0081

                     ====================================
                        Begin CG opt. move =      9
                     ====================================

outcell: Unit cell vectors (Ang):
       27.695492   -1.230000    0.000000
       14.912957   23.370000    0.000000
        0.000000    0.000000   40.000000

outcell: Cell vector modules (Ang)   :   27.722792   27.722792   40.000000
outcell: Cell angles (23,13,12) (deg):     90.0000     90.0000     60.0000
outcell: Cell volume (Ang**3)        :  26623.4638
<dSpData1D:S at geom step 9
  <sparsity:sparsity for geom step 9
    nrows_g=4572 nrows=128 sparsity=.0058 nnzs=122227, refcount: 7>
  <dData1D:(new from dSpData1D) n=122227, refcount: 1>
refcount: 1>
new_DM -- step:    10
Re-using DM from previous geometries...
Number of DMs in history: 1
 DM extrapolation coefficients: 
1   1.00000
New DM after history re-use:
<dSpData2D:SpM extrapolated using coords
  <sparsity:sparsity for geom step 9
    nrows_g=4572 nrows=128 sparsity=.0058 nnzs=122227, refcount: 9>
  <dData2D:(temp array for extrapolation) n=122227 m=1, refcount: 1>
refcount: 1>
No. of atoms with KB's overlaping orbs in proc 0. Max # of overlaps:     258     231

InitMesh: MESH = 256 x 256 x 432 = 28311552
InitMesh: Mesh cutoff (required, used) =   300.000   314.229 Ry
New grid distribution [1]: sub = 2
New grid distribution [2]: sub = 2
New grid distribution [3]: sub = 2
Setting up quadratic distribution...

        iscf     Eharris(eV)        E_KS(eV)     FreeEng(eV)     dDmax    Ef(eV) dHmax(eV)
   scf:    1   -83106.682911   -83106.695375   -83106.695375  0.007649 -3.933839  0.164548
   scf:    2   -83106.389696   -83106.618813   -83106.618813  0.016114 -3.933609  0.347603
   scf:    3   -83106.745404   -83106.720664   -83106.720664  0.011469 -3.933769  0.020077
   scf:    4   -83106.721872   -83106.721412   -83106.721412  0.000650 -3.933792  0.009035
   scf:    5   -83106.721830   -83106.721643   -83106.721643  0.000141 -3.933805  0.004110
   scf:    6   -83106.721759   -83106.721707   -83106.721707  0.000091 -3.933820  0.001460
   scf:    7   -83106.721727   -83106.721718   -83106.721718  0.000045 -3.933827  0.000522

SCF Convergence by DM+H criterion
max |DM_out - DM_in|         :     0.0000454837
max |H_out - H_in|      (eV) :     0.0005223740
SCF cycle converged after 7 iterations

Using DM_out to compute the final energy and forces
No. of atoms with KB's overlaping orbs in proc 0. Max # of overlaps:     258     231
System symmetry is of type slab but no DFTD3.Periodic list was found. Attempting to guess symmetry for D3.
Could not guess the right amount of periodicity directions for D3.
Enabling periodicity on all directions.

siesta: E_KS(eV) =           -83106.7021

siesta: Atomic forces (eV/Ang):
----------------------------------------
   Tot   -0.001146    0.002710    0.000412
----------------------------------------
   Max    0.567274
   Res    0.108828    sqrt( Sum f_i^2 / 3N )
----------------------------------------
   Max    0.567276    constrained

Stress tensor Voigt[x,y,z,yz,xz,xy] (kbar):      -25.86      -25.90       -4.72       -0.00        0.00       -0.01
(Free)E + p*V (eV/cell)   -82793.8823
Target enthalpy (eV/cell)   -83106.7021

                     ====================================
                        Begin CG opt. move =     10
                     ====================================

outcell: Unit cell vectors (Ang):
       27.695492   -1.230000    0.000000
       14.912957   23.370000    0.000000
        0.000000    0.000000   40.000000

outcell: Cell vector modules (Ang)   :   27.722792   27.722792   40.000000
outcell: Cell angles (23,13,12) (deg):     90.0000     90.0000     60.0000
outcell: Cell volume (Ang**3)        :  26623.4638
<dSpData1D:S at geom step 10
  <sparsity:sparsity for geom step 10
    nrows_g=4572 nrows=128 sparsity=.0058 nnzs=122254, refcount: 7>
  <dData1D:(new from dSpData1D) n=122254, refcount: 1>
refcount: 1>
new_DM -- step:    11
Re-using DM from previous geometries...
Number of DMs in history: 1
 DM extrapolation coefficients: 
1   1.00000
New DM after history re-use:
<dSpData2D:SpM extrapolated using coords
  <sparsity:sparsity for geom step 10
    nrows_g=4572 nrows=128 sparsity=.0058 nnzs=122254, refcount: 9>
  <dData2D:(temp array for extrapolation) n=122254 m=1, refcount: 1>
refcount: 1>
No. of atoms with KB's overlaping orbs in proc 0. Max # of overlaps:     258     231

InitMesh: MESH = 256 x 256 x 432 = 28311552
InitMesh: Mesh cutoff (required, used) =   300.000   314.229 Ry
New grid distribution [1]: sub = 2
New grid distribution [2]: sub = 2
New grid distribution [3]: sub = 2
Setting up quadratic distribution...

        iscf     Eharris(eV)        E_KS(eV)     FreeEng(eV)     dDmax    Ef(eV) dHmax(eV)
   scf:    1   -83106.712081   -83106.745907   -83106.745907  0.004224 -3.944359  0.115069
   scf:    2   -83106.619522   -83106.714260   -83106.714260  0.010799 -3.945141  0.264484
   scf:    3   -83106.767130   -83106.756414   -83106.756414  0.007629 -3.944490  0.010988
   scf:    4   -83106.756872   -83106.756694   -83106.756694  0.000365 -3.944463  0.005835
   scf:    5   -83106.756863   -83106.756787   -83106.756787  0.000086 -3.944461  0.002801
   scf:    6   -83106.756836   -83106.756814   -83106.756814  0.000062 -3.944455  0.000954

SCF Convergence by DM+H criterion
max |DM_out - DM_in|         :     0.0000621252
max |H_out - H_in|      (eV) :     0.0009536255
SCF cycle converged after 6 iterations

Using DM_out to compute the final energy and forces
No. of atoms with KB's overlaping orbs in proc 0. Max # of overlaps:     258     231
System symmetry is of type slab but no DFTD3.Periodic list was found. Attempting to guess symmetry for D3.
[...]
   19.88667603   14.76134681   18.24832320   1     210  C
   24.14586173   14.76134622   18.26745605   1     211  C
   28.40566047   14.75986944   18.28358356   1     212  C
   32.66722619   14.75830782   18.27455294   1     213  C
   36.92974138   14.75788004   18.24498274   1     214  C
   13.49619790   15.98896135   18.21675873   1     215  C
   17.75696706   15.99096529   18.22580482   1     216  C
   22.01654636   15.99196657   18.25304651   1     217  C
   26.27599215   15.99083560   18.27478012   1     218  C
   30.53672874   15.98869767   18.28237731   1     219  C
   34.79862026   15.98742034   18.25556698   1     220  C
   11.36524399   17.21787705   18.21493462   1     221  C
   15.62672699   17.21995380   18.20236610   1     222  C
   19.88699610   17.22195148   18.23021200   1     223  C
   24.14644564   17.22199701   18.25976859   1     224  C
   28.40637227   17.21980996   18.28106714   1     225  C
   32.66765584   17.21744815   18.26697299   1     226  C
   36.92948162   17.21700737   18.22465127   1     227  C
   13.49572212   18.44872856   18.19135233   1     228  C
   17.75665931   18.45126977   18.20114770   1     229  C
   22.01660981   18.45265611   18.23860066   1     230  C
   26.27633038   18.45119267   18.26906406   1     231  C
   30.53694011   18.44827710   18.27431137   1     232  C
   34.79832362   18.44649122   18.24136446   1     233  C
   39.05986851   18.44741890   18.19404322   1     234  C
   15.62574517   19.68007796   18.17871384   1     235  C
   19.88632407   19.68250093   18.21032886   1     236  C
   24.14625538   19.68251265   18.24872674   1     237  C
   28.40639645   19.67983104   18.27250656   1     238  C
   32.66730690   19.67692172   18.25736496   1     239  C
   36.92849860   19.67643329   18.21014903   1     240  C
   13.49431165   20.90850267   18.17215445   1     241  C
   17.75547381   20.91154302   18.18236550   1     242  C
   22.01591192   20.91301944   18.22342462   1     243  C
   26.27587949   20.91155777   18.26109347   1     244  C
   30.53648768   20.90821201   18.26750314   1     245  C
   34.79741542   20.90628330   18.23272405   1     246  C
   39.05831517   20.90718770   18.18228670   1     247  C
   15.62418899   22.14019832   18.16675997   1     248  C
   19.88503026   22.14278344   18.19791015   1     249  C
   24.14543218   22.14271188   18.24121762   1     250  C
   28.40587625   22.13992698   18.26756577   1     251  C
   32.66642464   22.13677888   18.25560447   1     252  C
   36.92705200   22.13638404   18.20624363   1     253  C
   41.18813702   22.13877292   18.16713833   1     254  C
    3.64665762    0.90811185   21.81323337   1     255  C
    7.89019900    0.52925918   21.77183895   1     256  C
   12.13407509    0.15349860   21.73594360   1     257  C
   16.37823149   -0.22080618   21.73933875   1     258  C
   20.62198088   -0.59683080   21.78167409   1     259  C
   24.86604818   -0.97594555   21.81610919   1     260  C
    1.63451162    2.32367744   21.82424426   1     261  C
    5.87811646    1.94359512   21.79060300   1     262  C
   10.12152085    1.56623847   21.75016822   1     263  C
   14.36537896    1.19161398   21.73100011   1     264  C
   18.60977239    0.81675018   21.75788342   1     265  C
   22.85383189    0.43902626   21.80051374   1     266  C
   27.09799626    0.05889510   21.82686121   1     267  C
    3.86608495    3.35868393   21.80302197   1     268  C
    8.10919187    2.97984846   21.76399122   1     269  C
   12.35266470    2.60399919   21.73197481   1     270  C
   16.59690903    2.22963241   21.73839145   1     271  C
   20.84135313    1.85329110   21.77777302   1     272  C
   25.08589612    1.47438401   21.81193568   1     273  C
    6.09697211    4.39424322   21.77498762   1     274  C
   10.34000226    4.01707680   21.74089404   1     275  C
   14.58386896    3.64198652   21.72827980   1     276  C
   18.82850687    3.26684335   21.75254481   1     277  C
   23.07328352    2.88914181   21.79021130   1     278  C
   27.31773474    2.50916494   21.81577141   1     279  C
    4.08475451    5.80933859   21.78044064   1     280  C
    8.32757219    5.43077605   21.74910594   1     281  C
   12.57073235    5.05471277   21.72813976   1     282  C
   16.81517731    4.67962357   21.73484895   1     283  C
   21.06026925    4.30313388   21.76463709   1     284  C
   25.30518910    3.92428615   21.79269610   1     285  C
   29.54933467    3.54406817   21.80386585   1     286  C
    6.31516768    6.84531965   21.75445756   1     287  C
   10.55777156    6.46806976   21.73245805   1     288  C
   14.80162283    6.09238382   21.72525080   1     289  C
   19.04659551    5.71644453   21.74279676   1     290  C
   23.29205469    5.33883754   21.76985529   1     291  C
   27.53681473    4.95924808   21.78737854   1     292  C
    8.54516483    7.88200926   21.73696827   1     293  C
   12.78807134    7.50545381   21.72689110   1     294  C
   17.03262043    7.12949505   21.72830357   1     295  C
   21.27837483    6.75264533   21.74812663   1     296  C
   25.52366342    6.37409763   21.76706665   1     297  C
   29.76784274    5.99449407   21.77470412   1     298  C
    6.53247653    9.29663049   21.73970973   1     299  C
   10.77489974    8.91913087   21.72934398   1     300  C
   15.01867028    8.54267647   21.72310030   1     301  C
   19.26400542    8.16601198   21.73248667   1     302  C
   23.50997447    7.78826866   21.74913147   1     303  C
   27.75490380    7.40945752   21.75823317   1     304  C
   31.99808375    7.03019686   21.75581005   1     305  C
    8.76199220   10.33357317   21.73084750   1     306  C
   13.00486822    9.95630259   21.72626657   1     307  C
   17.24955168    9.57924713   21.72196294   1     308  C
   21.49557515    9.20192031   21.73528341   1     309  C
   25.74128410    8.82373502   21.74316191   1     310  C
   29.98538480    8.44507533   21.74782186   1     311  C
   10.99162550   11.37038168   21.73068551   1     312  C
   15.23531854   10.99287344   21.72475190   1     313  C
   19.48088540   10.61529687   21.72797850   1     314  C
   23.72707134   10.23757509   21.73336333   1     315  C
   27.97206547    9.85956472   21.73505465   1     316  C
   32.21520250    9.48136378   21.73727417   1     317  C
    8.97856422   12.78505182   21.73427973   1     318  C
   13.22162465   12.40701532   21.73261583   1     319  C
   17.46622224   12.02882754   21.72922639   1     320  C
   21.71229006   11.65106404   21.73133643   1     321  C
   25.95818399   11.27344889   21.72624437   1     322  C
   30.20219112   10.89589611   21.72875135   1     323  C
   34.44468989   10.51823735   21.73181078   1     324  C
   11.20848127   13.82168795   21.74052953   1     325  C
   15.45210157   13.44292145   21.73935679   1     326  C
   19.69765024   13.06455183   21.73708505   1     327  C
   23.94371870   12.68692638   21.72583701   1     328  C
   28.18873972   12.30988775   21.72159742   1     329  C
   32.43191892   11.93271644   21.72842356   1     330  C
   13.43880999   14.85749949   21.75069422   1     331  C
   17.68337804   14.47842285   21.75197730   1     332  C
   21.92917822   14.10020458   21.73591263   1     333  C
   26.17492196   13.72325182   21.71925460   1     334  C
   30.41886707   13.34673766   21.72193213   1     335  C
   34.66138625   12.96971608   21.73539372   1     336  C
   11.42593852   16.27246305   21.76169507   1     337  C
   15.66984058   15.89282609   21.76729645   1     338  C
   19.91496590   15.51375419   21.75478586   1     339  C
   24.16072439   15.13639553   21.72678058   1     340  C
   28.40553947   14.76010332   21.71878565   1     341  C
   32.64879963   14.38401089   21.73073773   1     342  C
   36.89121477   14.00646658   21.74826147   1     343  C
   13.65686334   17.30786684   21.77838902   1     344  C
   17.90133017   16.92795417   21.77786975   1     345  C
   22.14669901   16.54954186   21.74441659   1     346  C
   26.39193057   16.17301046   21.72062900   1     347  C
   30.63594642   15.79757060   21.72671993   1     348  C
   34.87867148   15.42093138   21.74768129   1     349  C
   15.88843909   18.34279740   21.79506393   1     350  C
   20.13314256   17.96321592   21.77149849   1     351  C
   24.37826551   17.58583128   21.73364506   1     352  C
   28.62296665   17.21037228   21.72280070   1     353  C
   32.86620602   16.83498066   21.74195677   1     354  C
   37.10903928   16.45737903   21.76826418   1     355  C
   13.87587904   19.75813300   21.80363312   1     356  C
   18.12022340   19.37769283   21.79743339   1     357  C
   22.36498170   18.99901163   21.75486186   1     358  C
   26.60968780   18.62302249   21.72814840   1     359  C
   30.85374539   18.24820265   21.73411165   1     360  C
   35.09678523   17.87202225   21.76419631   1     361  C
   39.33984949   17.49311915   21.78681214   1     362  C
   16.10779651   20.79286703   21.81350980   1     363  C
   20.35212486   20.41306273   21.78367390   1     364  C
   24.59666166   20.03566175   21.74227183   1     365  C
   28.84109676   19.66084305   21.72888886   1     366  C
   33.08455932   19.28578066   21.75366362   1     367  C
   37.32774431   18.90820396   21.78729739   1     368  C
   18.33979899   21.82771666   21.80968564   1     369  C
   22.58390610   21.44901098   21.76629146   1     370  C
   26.82821581   21.07315948   21.73463508   1     371  C
   31.07223480   20.69877518   21.73828347   1     372  C
   35.31564867   20.32270301   21.77605862   1     373  C
   39.55915728   19.94354725   21.80641280   1     374  C
   16.32764071   23.24321681   21.82476944   1     375  C
   20.57165778   22.86311534   21.79228715   1     376  C
   24.81554429   22.48580171   21.75015800   1     377  C
   29.05961269   22.11115278   21.73129537   1     378  C
   33.30355226   21.73634186   21.75837446   1     379  C
   37.54713193   21.35869807   21.79844064   1     380  C
   41.79103732   20.97855403   21.81985611   1     381  C
    0.81721246    1.16188734   21.82818653   1     382  C
    5.06124281    0.78161640   21.80046184   1     383  C
    9.30474515    0.40391868   21.75821816   1     384  C
   13.54863438    0.02910357   21.73172926   1     385  C
   17.79283501   -0.34549504   21.75136672   1     386  C
   22.03654277   -0.72277682   21.79477105   1     387  C
   26.28072997   -1.10277614   21.82302671   1     388  C
    3.04923179    2.19677562   21.81632439   1     389  C
    7.29260769    1.81758200   21.77664531   1     390  C
   11.53610754    1.44147561   21.73875193   1     391  C
   15.78007349    1.06715329   21.73490202   1     392  C
   20.02435650    0.69135668   21.77327628   1     393  C
   24.26856358    0.31263121   21.81129597   1     394  C
    5.28062624    3.23214775   21.79056126   1     395  C
    9.52370585    2.85451502   21.75181483   1     396  C
   13.76727710    2.47951607   21.72905855   1     397  C
   18.01168012    2.10469414   21.74908561   1     398  C
   22.25606367    1.72739126   21.79087098   1     399  C
   26.50055518    1.34744802   21.82089753   1     400  C
    3.26847427    4.64735697   21.79748073   1     401  C
    7.51152646    4.26836337   21.76273450   1     402  C
   11.75453940    3.89204269   21.73249373   1     403  C
   15.99863274    3.51739173   21.73279512   1     404  C
   20.24329300    3.14125578   21.76535354   1     405  C
   24.48805973    2.76259086   21.79941252   1     406  C
   28.73242863    2.38231190   21.81788505   1     407  C
    5.49928265    5.68287172   21.77025584   1     408  C
    9.74206681    5.30534411   21.74025855   1     409  C
   13.98543072    4.92977989   21.72619298   1     410  C
   18.22994852    4.55438279   21.74305501   1     411  C
   22.47519059    4.17708711   21.77579216   1     412  C
   26.71995953    3.79751747   21.79981816   1     413  C
    7.72968099    6.71928484   21.74590714   1     414  C
   11.97227678    6.34275136   21.72867534   1     415  C
   16.21641483    5.96721905   21.72892622   1     416  C
   20.46163467    5.59075878   21.75138674   1     417  C
   24.70695096    5.21231810   21.77677743   1     418  C
   28.95160003    4.83254259   21.79003008   1     419  C
    5.71710491    8.13394657   21.74959851   1     420  C
    9.95952676    7.75631282   21.73190048   1     421  C
   14.20276931    7.38017377   21.72455306   1     422  C
   18.44763480    7.00395574   21.73367732   1     423  C
   22.69346158    6.62642142   21.75575546   1     424  C
   26.93852856    6.24749186   21.77046011   1     425  C
   31.18240070    5.86786212   21.77102980   1     426  C
    7.94687731    9.17055299   21.73529427   1     427  C
   12.18934757    8.79354649   21.72720087   1     428  C
   16.43346239    8.41707592   21.72295194   1     429  C
   20.67915425    8.04003204   21.73815577   1     430  C
   24.92496986    7.66189688   21.75344780   1     431  C
   29.16958593    7.28281343   21.76022526   1     432  C
   10.17640693   10.20750766   21.72964714   1     433  C
   14.41960228    9.83050111   21.72392211   1     434  C
   18.66459819    9.45336859   21.72615679   1     435  C
   22.91074708    9.07568274   21.73875193   1     436  C
   27.15614690    8.69740143   21.74468795   1     437  C
   31.39992250    8.31878358   21.74674596   1     438  C
    8.16358207   11.62212855   21.73107087   1     439  C
   12.40616149   11.24447290   21.72933147   1     440  C
   16.65014387   10.86683578   21.72299984   1     441  C
   20.89606326   10.48921755   21.73096946   1     442  C
   25.14212850   10.11137533   21.73347243   1     443  C
   29.38672673    9.73329505   21.73636734   1     444  C
   33.62967150    9.35525557   21.73562852   1     445  C
   10.39310215   12.65892954   21.73401005   1     446  C
   14.63621631   12.28072620   21.73047612   1     447  C
   18.88133979   11.90271405   21.73048484   1     448  C
   23.12741811   11.52493267   21.72993438   1     449  C
   27.37302698   11.14742109   21.72635504   1     450  C
   31.61679781   10.76979467   21.73055013   1     451  C
   12.62299411   13.69520473   21.74032525   1     452  C
   16.86704967   13.31653065   21.73936760   1     453  C
   21.11273199   12.93838103   21.73454594   1     454  C
   25.35882930   12.56106614   21.72234068   1     455  C
   29.60335715   12.18405240   21.72280282   1     456  C
   33.84638200   11.80674309   21.73135666   1     457  C
   10.61014026   15.11014771   21.74969080   1     458  C
   14.85344350   14.73096913   21.75157861   1     459  C
   19.09839349   14.35201931   21.74832047   1     460  C
   23.34427805   13.97440365   21.72892473   1     461  C
   27.58975465   13.59764858   21.71863961   1     462  C
   31.83346955   13.22113450   21.72540891   1     463  C
   36.07581370   12.84366342   21.73901519   1     464  C
   12.84048452   16.14583150   21.76295996   1     465  C
   17.08463977   15.76623901   21.76690863   1     466  C
   21.32999918   15.38772545   21.74462592   1     467  C
   25.57559380   15.01083752   21.72076728   1     468  C
   29.82018021   14.63484872   21.72124164   1     469  C
   34.06325078   14.25821689   21.73707491   1     470  C
   15.07160288   17.18102595   21.78121392   1     471  C
   19.31621151   16.80143958   21.76935078   1     472  C
   23.56162200   16.42384725   21.73398796   1     473  C
   27.80668254   16.04790021   21.71949961   1     474  C
   32.05046972   15.67227297   21.73221499   1     475  C
   36.29314411   15.29494347   21.75488842   1     476  C
   13.05903025   18.59634284   21.79034792   1     477  C
   17.30318536   18.21596955   21.79228288   1     478  C
   21.54805513   17.83718703   21.75701372   1     479  C
   25.79305439   17.46064799   21.72646364   1     480  C
   30.03761907   17.08560955   21.72760079   1     481  C
   34.28074021   16.70946850   21.75104202   1     482  C
   38.52348997   16.33100952   21.77317914   1     483  C
   15.29059690   19.63121417   21.80553735   1     484  C
   19.53500554   19.25122660   21.78549973   1     485  C
   23.77977303   18.87355198   21.74294304   1     486  C
   28.02447485   18.49832599   21.72589813   1     487  C
   32.26828758   18.12332956   21.74333074   1     488  C
   36.51134023   17.74596643   21.77422808   1     489  C
   17.52252081   20.66598388   21.80890090   1     490  C
   21.76685577   20.28694663   21.76792758   1     491  C
   26.01139016   19.91078405   21.73436102   1     492  C
   30.25570606   19.53622917   21.73288640   1     493  C
   34.49906178   19.16047222   21.76536785   1     494  C
   38.74226297   18.78169192   21.79490640   1     495  C
   15.51027064   22.08142942   21.82116972   1     496  C
   19.75446600   21.70124756   21.79656686   1     497  C
   23.99859314   21.32355537   21.75297191   1     498  C
   28.24287856   20.94870899   21.73082932   1     499  C
   32.48682384   20.57400465   21.74979774   1     500  C
   36.73019261   20.19675751   21.78830856   1     501  C
   40.97380783   19.81680035   21.81121436   1     502  C
   17.74237285   23.11627367   21.81837732   1     503  C
   21.98625564   22.73719478   21.77784765   1     504  C
   26.23024898   22.36103964   21.74007139   1     505  C
   30.47428546   21.98675863   21.73490551   1     506  C
   34.71807428   21.61115115   21.77294230   1     507  C
   38.96171178   21.23218488   21.80842884   1     508  C

siesta: Program's energy decomposition (eV):
siesta: Ebs     =    -26959.877143
siesta: Eions   =    143338.147527
siesta: Ena     =     31651.440548
siesta: Ekin    =     57736.060501
siesta: Enl     =     -2929.151169
siesta: Eso     =         0.000000
siesta: Edftu   =         0.000000
siesta: DEna    =      3326.800221
siesta: DUscf   =       169.116939
siesta: DUext   =         0.000000
siesta: Ex      =    -27096.590924
siesta: Ec      =     -2576.786453
siesta: Exc     =    -29673.377378
siesta: EbV     =         0.000000
siesta: eta*DQ  =         0.000000
siesta: Emadel  =         0.000000
siesta: Emeta   =         0.000000
siesta: Emolmec =         0.000000
siesta: Ekinion =         0.000000
siesta: Eharris =    -83106.971430
siesta: Etot    =    -83106.967869
siesta: FreeEng =    -83106.967869

siesta: Final energy (eV):
siesta:  Band Struct. =  -26959.877143
siesta:       Kinetic =   57736.060501
siesta:       Hartree = 1346625.540148
siesta:         Edftu =       0.000000
siesta:       Eso     =       0.000000
siesta:    Ext. field =       0.000000
siesta:         Exch. =  -27096.590924
siesta:         Corr. =   -2576.786453
siesta:     Bulk bias =       0.000000
siesta:   Exch.-corr. =  -29673.377378
siesta:  Ion-electron =-2745505.254088
siesta:       Ion-ion = 1287759.772952
siesta:       Ekinion =       0.000000
siesta: D3 dispersion =     -49.710004
siesta:         Total =  -83106.967869
siesta:         Fermi =      -3.925859

siesta: Stress tensor (static) (eV/Ang**3):
siesta:    -0.016213    0.000002   -0.000000
siesta:     0.000002   -0.016217   -0.000000
siesta:    -0.000000   -0.000000   -0.002589

siesta: Cell volume =      26623.463814 Ang**3

siesta: Pressure (static):
siesta:                Solid            Molecule  Units
siesta:           0.00012714          0.00012709  Ry/Bohr**3
siesta:           0.01167334          0.01166880  eV/Ang**3
siesta:          18.70275939         18.69547805  kBar
(Free)E+ p_basis*V_orbitals  =      -82800.823716
(Free)Eharris+ p_basis*V_orbitals  =      -82800.827277

siesta: Electric dipole (a.u.)  =    0.000000   -0.000000   -0.000080
siesta: Electric dipole (Debye) =    0.000000   -0.000000   -0.000202

cite: Please see "Graphene.bib" for an exhaustive BiBTeX file.
cite: Please clearly indicate Siesta version in published work: 5.0.0-alpha-112-g6e4f53aee-dirty
cite: This calculation has made use of the following articles
cite: which are encouraged to be cited in a published work.
        Primary SIESTA paper
          DOI: www.doi.org/10.1088/0953-8984/14/11/302
 
 
>> End of run:   1-DEC-2024  15:28:30
Job completed
