Siesta Version  : 5.0.0-alpha-112-g6e4f53aee-dirty
Architecture    : ----
Compiler version: Intel-2021.8.0.20221119
Compiler flags  : -O2 -ip -xHost -fp-model=strict -prec-div -prec-sqrt
PP flags        : ----
Libraries       : ----
Parallelisations: MPI
GEMM3M support
NetCDF support
NetCDF-4 support

Runtime information:
* Directory : /n/holylabs/LABS/kaxiras_lab/axzhu/projects/AM207-final-project/N_9/PSO-2params
* Running on 64 nodes in parallel.
>> Start of run:  30-NOV-2024  20:47:49

                           *********************** 
                           *  WELCOME TO SIESTA  * 
                           *********************** 

reinit: Reading from standard input
reinit: Dumping input in INPUT_TMP.93039
************************** Dump of input data file ****************************
#################################
#				#
#	Basic Information	#
#	      			#
#################################
SystemName      Graphene
SystemLabel     Graphene
#########################################
#					#
#	Structural Information		#
#					#
#########################################
%include structure.fdf
#################################
#                               #
#       DFT Parameters          #
#                               #
#################################
SolutionMethod diagon           # Method of solving system. Can change to OrderN, transiesta, etc.
#Diag.Algorithm MRRR
#NumberOfEigenStates -20 # this will include first 10 conduction bands
XC.Functional   GGA
XC.Authors      PBE
DFTD3 true
Spin non-polarized
# This is causing memory issues, keep it low for now.
Mesh.Cutoff 300 Ry              # Cut off plane waves with kinetic energy higher than this.
MaxSCFIterations 300            # Max number of iterations in the SCF loop.
DM.UseSaveDM true
MinSCFIterations       3
SCF.DM.Tolerance       0.0001
SCF.Mixer.Weight       0.10
SCF.Mixer.History      12
SCF.Mix.First          true
#################################
#                               #
#             Basis             #
#                               #
#################################
#PAO.BasisSize   DZP
PAO.Basis < basis.fdf
#########################################
#					#
#	k-points, Bands, DOS		#
#		  	 		#
#########################################
%block kgrid_Monkhorst_Pack
   1  0  0  0.0
   0  1  0  0.0
   0  0  1  0.0
%endblock kgrid_Monkhorst_Pack
#BandLinesScale ReciprocalLatticeVectors
#%block BandLines
#1   0.6666666667  0.3333333333  0.0000000000  K
#10  0.0000000000  0.0000000000  0.0000000000  Gamma
#10  0.5000000000  0.0000000000  0.0000000000  M
#10  0.6666666667  0.3333333333  0.0000000000  K
#%endblock BandLines
# Local density of states (LDOS)
# %block LocalDensityOfStates
# EF 8.40 8.50 eV
# %endblock LocalDensityOfStates
#########################################
#                                       #
#             Wavefunctions             #
#                                       #
#########################################
#WaveFuncKPointsScale ReciprocalLatticeVectors
#%block WaveFuncKPoints
#0.666 0.333 0.000 from 4375 to 4378 # K wavefuncs 4375 to 4378
#0.000 0.000 0.000 from 4375 to 4378 # Gamma wavefuncs 4375 to 4378
#0.500 0.000 0.000 from 4375 to 4378 # M wavefuncs 4375 to 4378
#%endblock WaveFuncKPoints
#WriteDenchar T
#########################################
#                                       #
#       Geometry Optimisation           #
#                                       #
#########################################
MD.UseSaveXV true
MD.TypeOfRun           CG                  # Conjugate Gradient
MD.NumCGsteps          200                 # Max number of steps
MD.MaxForceTol         0.01    eV/Ang      # 10 meV/Ang
MD.VariableCell        false               # Don't relax cell
MD.MaxCGDispl          0.5 Bohr            # Maximum displacement of any atom
# Fix COM in Z direction only
%block Geometry.Constraints
 center all 0.0 0.0 1.0
%endblock Geometry.Constraints
************************** End of input data file *****************************

reinit: -----------------------------------------------------------------------
reinit: System Name: Graphene
reinit: -----------------------------------------------------------------------
reinit: System Label: Graphene
reinit: -----------------------------------------------------------------------

initatom: Reading input for the pseudopotentials and atomic orbitals ----------
Species number:   1 Atomic number:    6 Label: C
 

---- Processing specs for species: C
Ground state valence configuration:   2s02  2p02
Reading pseudopotential information in PSML from:
  C.psml
PSML file version: 1.1
Using libxc ids:  101 130
GGA--PBE XC_GGA_X_PBE--XC_GGA_C_PBE pb
 Using ATOM defaults for log grid...
PSML uuid: 297821e0-be41-11e7-6802-e1ff7dfff095

---- Pseudopotential check for C 

Pseudized shells:
2s( 2.00) rc: 1.20
2p( 2.00) rc: 1.26
Valence configuration for ps generation: 2s:2p: Total charge:   4.000000
For C, standard SIESTA heuristics set lmxkb to 3
 (one more than the basis l, including polarization orbitals).
Use PS.lmax or PS.KBprojectors blocks to override.
C pseudopotential only contains V_ls up to l=1 -- lmxkb reset.

<basis_specs>
===============================================================================
C                    Z=   6    Mass=  12.011        Charge= 0.99941    
Lmxo=2 Lmxkb= 1    BasisType=split      Semic=F
L=0  Nsemic=0  Cnfigmx=2
          i=1  nzeta=1  polorb=0  (2s)
            splnorm:   0.15000    
               vcte:    132.57    
               rinn:    4.5256    
               qcoe:    0.0000    
               qyuk:    0.0000    
               qwid:   0.10000E-01
                rcs:    6.0009    
            lambdas:    1.0000    
L=1  Nsemic=0  Cnfigmx=2
          i=1  nzeta=1  polorb=0  (2p)
            splnorm:   0.15000    
               vcte:    6.0639    
               rinn:    6.0646    
               qcoe:    0.0000    
               qyuk:    0.0000    
               qwid:   0.10000E-01
                rcs:    6.7108    
            lambdas:    1.0000    
L=2  Nsemic=0  Cnfigmx=3
          i=1  nzeta=1  polorb=0  (3d)
            splnorm:   0.15000    
               vcte:    14.478    
               rinn:    4.3208    
               qcoe:    0.0000    
               qyuk:    0.0000    
               qwid:   0.10000E-01
                rcs:    6.2254    
            lambdas:    1.0000    
-------------------------------------------------------------------------------
L=0  Nkbl=1  erefs: 0.17977+309
L=1  Nkbl=1  erefs: 0.17977+309
===============================================================================
</basis_specs>

atom: Called for C                     (Z =   6)
NOTE: C pseudopotential has channels up to l= 1
NOTE: PAOs with higher l will be generated with V_local

read_vps: Pseudopotential generation method:
read_vps: ONCVPSP-3.Hamann's oncvpsp                        
Valence charge in pseudo generation:    4.00000

read_vps: Pseudopotential includes a core correction:
read_vps: Pseudo-core for xc-correction

xc_check: Exchange-correlation functional:
xc_check: GGA Perdew, Burke & Ernzerhof 1996
Got Vlocal (oncv-fit) from psml data
Choosing vlocal chloc cutoff:  4.139772
qtot up to nchloc:    3.99998844
atom: Maximum radius for chlocal:    4.13977
atom: Maximum radius for r*vlocal+2*Zval:    4.13977
Reading KB projs from C psml data
Using scalar-relativistic projectors in PSML file

PSML: Kleinman-Bylander projectors: 
   l= 0   rc=  1.231096   Ekb= 12.963096
   l= 0   rc=  1.231096   Ekb=  0.771007
   l= 1   rc=  1.294237   Ekb= -8.399923
   l= 1   rc=  1.294237   Ekb= -1.755033

PSML: Total number of  Kleinman-Bylander projectors:   8
atom: -------------------------------------------------------------------------

atom: SANKEY-TYPE ORBITALS:

atom: basis set generated (by rescaling the valence charge)
atom: for a cation of charge   0.9994

SPLIT: Orbitals with angular momentum L= 0

SPLIT: Basis orbitals for state 2s

   izeta = 1
                 lambda =    1.000000
                     rc =    6.099293
                 energy =   -2.079355
                kinetic =    1.090115
    potential(screened) =   -3.169470
       potential(ionic) =   -5.727963

SPLIT: Orbitals with angular momentum L= 1

SPLIT: Basis orbitals for state 2p

   izeta = 1
                 lambda =    1.000000
                     rc =    6.740804
                 energy =   -1.441657
                kinetic =    3.222058
    potential(screened) =   -4.663715
       potential(ionic) =   -7.206130
*Note: V_local used for l= 2

** Using vlocal for PAOs with L= 2

SPLIT: Orbitals with angular momentum L= 2

SPLIT: Basis orbitals for state 3d

   izeta = 1
                 lambda =    1.000000
                     rc =    6.253707
                 energy =    0.017329
                kinetic =    1.197074
    potential(screened) =   -1.179745
       potential(ionic) =   -2.838380
atom: Total number of Sankey-type orbitals:  9

atm_pop: Valence configuration (for local Pseudopot. screening):
 2s( 2.00)                                                            
 2p( 2.00)                                                            
 3d( 0.00)                                                            
Vna: chval, zval:    4.00000   4.00000

Vna:  Cut-off radius for the neutral-atom potential:   6.740804
comcore: Pseudo-core radius Rcore=  1.682861

atom: _________________________________________________________________________

prinput: Basis input 

PAO.BasisType split     

%block ChemicalSpeciesLabel
    1    6 C                       # Species index, atomic number, species label
%endblock ChemicalSpeciesLabel

%block PAO.Basis                 # Define Basis set
# WARNING: This information might be incomplete!
C                     3   0.999            # Label, l-shells, ionic net charge
 n=2   0   1                         # n, l, Nzeta 
   6.099   
   1.000   
 n=2   1   1                         # n, l, Nzeta 
   6.741   
   1.000   
 n=3   2   1                         # n, l, Nzeta 
   6.254   
   1.000   
%endblock PAO.Basis

prinput: ----------------------------------------------------------------------

Dumping basis to NetCDF file C.ion.nc
coor:   Atomic-coordinates input format  =     Cartesian coordinates
coor:                                          (in Angstroms)

siesta: WARNING: XV file not found

siesta: Atomic coordinates (Bohr) and species
siesta:      2.68394   0.00000  34.56753  1        1
siesta:     10.73577   0.00000  34.56753  1        2
siesta:     18.78760   0.00000  34.56753  1        3
siesta:     26.83943   0.00000  34.56753  1        4
siesta:     34.89126   0.00000  34.56753  1        5
siesta:     42.94309   0.00000  34.56753  1        6
siesta:     50.99492   0.00000  34.56753  1        7
siesta:     59.04675   0.00000  34.56753  1        8
siesta:     67.09858   0.00000  34.56753  1        9
siesta:      6.70986   2.32436  34.56753  1       10
siesta:     14.76169   2.32436  34.56753  1       11
siesta:     22.81352   2.32436  34.56753  1       12
siesta:     30.86535   2.32436  34.56753  1       13
siesta:     38.91718   2.32436  34.56753  1       14
siesta:     46.96901   2.32436  34.56753  1       15
siesta:     55.02084   2.32436  34.56753  1       16
siesta:     63.07267   2.32436  34.56753  1       17
siesta:     71.12450   2.32436  34.56753  1       18
siesta:     10.73577   4.64873  34.56753  1       19
siesta:     18.78760   4.64873  34.56753  1       20
siesta:     26.83943   4.64873  34.56753  1       21
siesta:     34.89126   4.64873  34.56753  1       22
siesta:     42.94309   4.64873  34.56753  1       23
siesta:     50.99492   4.64873  34.56753  1       24
siesta:     59.04675   4.64873  34.56753  1       25
siesta:     67.09858   4.64873  34.56753  1       26
siesta:      6.70986   6.97309  34.56753  1       27
siesta:     14.76169   6.97309  34.56753  1       28
siesta:     22.81352   6.97309  34.56753  1       29
siesta:     30.86535   6.97309  34.56753  1       30
siesta:     38.91718   6.97309  34.56753  1       31
siesta:     46.96901   6.97309  34.56753  1       32
siesta:     55.02084   6.97309  34.56753  1       33
siesta:     63.07267   6.97309  34.56753  1       34
siesta:     71.12450   6.97309  34.56753  1       35
siesta:     10.73577   9.29745  34.56753  1       36
siesta:     18.78760   9.29745  34.56753  1       37
siesta:     26.83943   9.29745  34.56753  1       38
siesta:     34.89126   9.29745  34.56753  1       39
siesta:     42.94309   9.29745  34.56753  1       40
siesta:     50.99492   9.29745  34.56753  1       41
siesta:     59.04675   9.29745  34.56753  1       42
siesta:     67.09858   9.29745  34.56753  1       43
siesta:     75.15041   9.29745  34.56753  1       44
siesta:     14.76169  11.62182  34.56753  1       45
siesta:     22.81352  11.62182  34.56753  1       46
siesta:     30.86535  11.62182  34.56753  1       47
siesta:     38.91718  11.62182  34.56753  1       48
siesta:     46.96901  11.62182  34.56753  1       49
siesta:     55.02084  11.62182  34.56753  1       50
siesta:     63.07267  11.62182  34.56753  1       51
siesta:     71.12450  11.62182  34.56753  1       52
siesta:     10.73577  13.94618  34.56753  1       53
siesta:     18.78760  13.94618  34.56753  1       54
siesta:     26.83943  13.94618  34.56753  1       55
siesta:     34.89126  13.94618  34.56753  1       56
siesta:     42.94309  13.94618  34.56753  1       57
siesta:     50.99492  13.94618  34.56753  1       58
siesta:     59.04675  13.94618  34.56753  1       59
siesta:     67.09858  13.94618  34.56753  1       60
siesta:     75.15041  13.94618  34.56753  1       61
siesta:     14.76169  16.27054  34.56753  1       62
siesta:     22.81352  16.27054  34.56753  1       63
siesta:     30.86535  16.27054  34.56753  1       64
siesta:     38.91718  16.27054  34.56753  1       65
siesta:     46.96901  16.27054  34.56753  1       66
siesta:     55.02084  16.27054  34.56753  1       67
siesta:     63.07267  16.27054  34.56753  1       68
siesta:     71.12450  16.27054  34.56753  1       69
siesta:     79.17633  16.27054  34.56753  1       70
siesta:     18.78760  18.59491  34.56753  1       71
siesta:     26.83943  18.59491  34.56753  1       72
siesta:     34.89126  18.59491  34.56753  1       73
siesta:     42.94309  18.59491  34.56753  1       74
siesta:     50.99492  18.59491  34.56753  1       75
siesta:     59.04675  18.59491  34.56753  1       76
siesta:     67.09858  18.59491  34.56753  1       77
siesta:     75.15041  18.59491  34.56753  1       78
siesta:     14.76169  20.91927  34.56753  1       79
siesta:     22.81352  20.91927  34.56753  1       80
siesta:     30.86535  20.91927  34.56753  1       81
siesta:     38.91718  20.91927  34.56753  1       82
siesta:     46.96901  20.91927  34.56753  1       83
siesta:     55.02084  20.91927  34.56753  1       84
siesta:     63.07267  20.91927  34.56753  1       85
siesta:     71.12450  20.91927  34.56753  1       86
siesta:     79.17633  20.91927  34.56753  1       87
siesta:     18.78760  23.24363  34.56753  1       88
siesta:     26.83943  23.24363  34.56753  1       89
siesta:     34.89126  23.24363  34.56753  1       90
siesta:     42.94309  23.24363  34.56753  1       91
siesta:     50.99492  23.24363  34.56753  1       92
siesta:     59.04675  23.24363  34.56753  1       93
siesta:     67.09858  23.24363  34.56753  1       94
siesta:     75.15041  23.24363  34.56753  1       95
siesta:     83.20224  23.24363  34.56753  1       96
siesta:     22.81352  25.56799  34.56753  1       97
siesta:     30.86535  25.56799  34.56753  1       98
siesta:     38.91718  25.56799  34.56753  1       99
siesta:     46.96901  25.56799  34.56753  1      100
siesta:     55.02084  25.56799  34.56753  1      101
siesta:     63.07267  25.56799  34.56753  1      102
siesta:     71.12450  25.56799  34.56753  1      103
siesta:     79.17633  25.56799  34.56753  1      104
siesta:     18.78760  27.89236  34.56753  1      105
siesta:     26.83943  27.89236  34.56753  1      106
siesta:     34.89126  27.89236  34.56753  1      107
siesta:     42.94309  27.89236  34.56753  1      108
siesta:     50.99492  27.89236  34.56753  1      109
siesta:     59.04675  27.89236  34.56753  1      110
siesta:     67.09858  27.89236  34.56753  1      111
siesta:     75.15041  27.89236  34.56753  1      112
siesta:     83.20224  27.89236  34.56753  1      113
siesta:     22.81352  30.21672  34.56753  1      114
siesta:     30.86535  30.21672  34.56753  1      115
siesta:     38.91718  30.21672  34.56753  1      116
siesta:     46.96901  30.21672  34.56753  1      117
siesta:     55.02084  30.21672  34.56753  1      118
siesta:     63.07267  30.21672  34.56753  1      119
siesta:     71.12450  30.21672  34.56753  1      120
siesta:     79.17633  30.21672  34.56753  1      121
siesta:     87.22816  30.21672  34.56753  1      122
siesta:     26.83943  32.54108  34.56753  1      123
siesta:     34.89126  32.54108  34.56753  1      124
siesta:     42.94309  32.54108  34.56753  1      125
siesta:     50.99492  32.54108  34.56753  1      126
siesta:     59.04675  32.54108  34.56753  1      127
siesta:     67.09858  32.54108  34.56753  1      128
siesta:     75.15041  32.54108  34.56753  1      129
siesta:     83.20224  32.54108  34.56753  1      130
siesta:     22.81352  34.86545  34.56753  1      131
siesta:     30.86535  34.86545  34.56753  1      132
siesta:     38.91718  34.86545  34.56753  1      133
siesta:     46.96901  34.86545  34.56753  1      134
siesta:     55.02084  34.86545  34.56753  1      135
siesta:     63.07267  34.86545  34.56753  1      136
siesta:     71.12450  34.86545  34.56753  1      137
siesta:     79.17633  34.86545  34.56753  1      138
siesta:     87.22816  34.86545  34.56753  1      139
siesta:     26.83943  37.18981  34.56753  1      140
siesta:     34.89126  37.18981  34.56753  1      141
siesta:     42.94309  37.18981  34.56753  1      142
siesta:     50.99492  37.18981  34.56753  1      143
siesta:     59.04675  37.18981  34.56753  1      144
siesta:     67.09858  37.18981  34.56753  1      145
siesta:     75.15041  37.18981  34.56753  1      146
siesta:     83.20224  37.18981  34.56753  1      147
siesta:     91.25407  37.18981  34.56753  1      148
siesta:     30.86535  39.51417  34.56753  1      149
siesta:     38.91718  39.51417  34.56753  1      150
siesta:     46.96901  39.51417  34.56753  1      151
siesta:     55.02084  39.51417  34.56753  1      152
siesta:     63.07267  39.51417  34.56753  1      153
siesta:     71.12450  39.51417  34.56753  1      154
siesta:     79.17633  39.51417  34.56753  1      155
siesta:     87.22816  39.51417  34.56753  1      156
siesta:     26.83943  41.83854  34.56753  1      157
siesta:     34.89126  41.83854  34.56753  1      158
siesta:     42.94309  41.83854  34.56753  1      159
siesta:     50.99492  41.83854  34.56753  1      160
siesta:     59.04675  41.83854  34.56753  1      161
siesta:     67.09858  41.83854  34.56753  1      162
siesta:     75.15041  41.83854  34.56753  1      163
siesta:     83.20224  41.83854  34.56753  1      164
siesta:     91.25407  41.83854  34.56753  1      165
siesta:     30.86535  44.16290  34.56753  1      166
siesta:     38.91718  44.16290  34.56753  1      167
siesta:     46.96901  44.16290  34.56753  1      168
siesta:     55.02084  44.16290  34.56753  1      169
siesta:     63.07267  44.16290  34.56753  1      170
siesta:     71.12450  44.16290  34.56753  1      171
siesta:     79.17633  44.16290  34.56753  1      172
siesta:     87.22816  44.16290  34.56753  1      173
siesta:     95.27999  44.16290  34.56753  1      174
siesta:     34.89126  46.48726  34.56753  1      175
siesta:     42.94309  46.48726  34.56753  1      176
siesta:     50.99492  46.48726  34.56753  1      177
siesta:     59.04675  46.48726  34.56753  1      178
siesta:     67.09858  46.48726  34.56753  1      179
siesta:     75.15041  46.48726  34.56753  1      180
siesta:     83.20224  46.48726  34.56753  1      181
siesta:     91.25407  46.48726  34.56753  1      182
siesta:     30.86535  48.81163  34.56753  1      183
siesta:     38.91718  48.81163  34.56753  1      184
siesta:     46.96901  48.81163  34.56753  1      185
siesta:     55.02084  48.81163  34.56753  1      186
siesta:     63.07267  48.81163  34.56753  1      187
siesta:     71.12450  48.81163  34.56753  1      188
siesta:     79.17633  48.81163  34.56753  1      189
siesta:     87.22816  48.81163  34.56753  1      190
siesta:     95.27999  48.81163  34.56753  1      191
siesta:     34.89126  51.13599  34.56753  1      192
siesta:     42.94309  51.13599  34.56753  1      193
siesta:     50.99492  51.13599  34.56753  1      194
siesta:     59.04675  51.13599  34.56753  1      195
siesta:     67.09858  51.13599  34.56753  1      196
siesta:     75.15041  51.13599  34.56753  1      197
siesta:     83.20224  51.13599  34.56753  1      198
siesta:     91.25407  51.13599  34.56753  1      199
siesta:     99.30590  51.13599  34.56753  1      200
siesta:     38.91718  53.46035  34.56753  1      201
siesta:     46.96901  53.46035  34.56753  1      202
siesta:     55.02084  53.46035  34.56753  1      203
siesta:     63.07267  53.46035  34.56753  1      204
siesta:     71.12450  53.46035  34.56753  1      205
siesta:     79.17633  53.46035  34.56753  1      206
siesta:     87.22816  53.46035  34.56753  1      207
siesta:     95.27999  53.46035  34.56753  1      208
siesta:     34.89126  55.78472  34.56753  1      209
siesta:     42.94309  55.78472  34.56753  1      210
siesta:     50.99492  55.78472  34.56753  1      211
siesta:     59.04675  55.78472  34.56753  1      212
siesta:     67.09858  55.78472  34.56753  1      213
siesta:     75.15041  55.78472  34.56753  1      214
siesta:     83.20224  55.78472  34.56753  1      215
siesta:     91.25407  55.78472  34.56753  1      216
siesta:     99.30590  55.78472  34.56753  1      217
siesta:      5.36789   0.00000  34.56753  1      218
siesta:     13.41972   0.00000  34.56753  1      219
siesta:     21.47155   0.00000  34.56753  1      220
siesta:     29.52338   0.00000  34.56753  1      221
siesta:     37.57521   0.00000  34.56753  1      222
siesta:     45.62704   0.00000  34.56753  1      223
siesta:     53.67887   0.00000  34.56753  1      224
siesta:     61.73070   0.00000  34.56753  1      225
siesta:     69.78253   0.00000  34.56753  1      226
siesta:      9.39380   2.32436  34.56753  1      227
siesta:     17.44563   2.32436  34.56753  1      228
siesta:     25.49746   2.32436  34.56753  1      229
siesta:     33.54929   2.32436  34.56753  1      230
siesta:     41.60112   2.32436  34.56753  1      231
siesta:     49.65295   2.32436  34.56753  1      232
siesta:     57.70478   2.32436  34.56753  1      233
siesta:     65.75661   2.32436  34.56753  1      234
siesta:      5.36789   4.64873  34.56753  1      235
siesta:     13.41972   4.64873  34.56753  1      236
siesta:     21.47155   4.64873  34.56753  1      237
siesta:     29.52338   4.64873  34.56753  1      238
siesta:     37.57521   4.64873  34.56753  1      239
siesta:     45.62704   4.64873  34.56753  1      240
siesta:     53.67887   4.64873  34.56753  1      241
siesta:     61.73070   4.64873  34.56753  1      242
siesta:     69.78253   4.64873  34.56753  1      243
siesta:      9.39380   6.97309  34.56753  1      244
siesta:     17.44563   6.97309  34.56753  1      245
siesta:     25.49746   6.97309  34.56753  1      246
siesta:     33.54929   6.97309  34.56753  1      247
siesta:     41.60112   6.97309  34.56753  1      248
siesta:     49.65295   6.97309  34.56753  1      249
siesta:     57.70478   6.97309  34.56753  1      250
siesta:     65.75661   6.97309  34.56753  1      251
siesta:     73.80844   6.97309  34.56753  1      252
siesta:     13.41972   9.29745  34.56753  1      253
siesta:     21.47155   9.29745  34.56753  1      254
siesta:     29.52338   9.29745  34.56753  1      255
siesta:     37.57521   9.29745  34.56753  1      256
siesta:     45.62704   9.29745  34.56753  1      257
siesta:     53.67887   9.29745  34.56753  1      258
siesta:     61.73070   9.29745  34.56753  1      259
siesta:     69.78253   9.29745  34.56753  1      260
siesta:      9.39380  11.62182  34.56753  1      261
siesta:     17.44563  11.62182  34.56753  1      262
siesta:     25.49746  11.62182  34.56753  1      263
siesta:     33.54929  11.62182  34.56753  1      264
siesta:     41.60112  11.62182  34.56753  1      265
siesta:     49.65295  11.62182  34.56753  1      266
siesta:     57.70478  11.62182  34.56753  1      267
siesta:     65.75661  11.62182  34.56753  1      268
siesta:     73.80844  11.62182  34.56753  1      269
siesta:     13.41972  13.94618  34.56753  1      270
siesta:     21.47155  13.94618  34.56753  1      271
siesta:     29.52338  13.94618  34.56753  1      272
siesta:     37.57521  13.94618  34.56753  1      273
siesta:     45.62704  13.94618  34.56753  1      274
siesta:     53.67887  13.94618  34.56753  1      275
siesta:     61.73070  13.94618  34.56753  1      276
siesta:     69.78253  13.94618  34.56753  1      277
siesta:     77.83436  13.94618  34.56753  1      278
siesta:     17.44563  16.27054  34.56753  1      279
siesta:     25.49746  16.27054  34.56753  1      280
siesta:     33.54929  16.27054  34.56753  1      281
siesta:     41.60112  16.27054  34.56753  1      282
siesta:     49.65295  16.27054  34.56753  1      283
siesta:     57.70478  16.27054  34.56753  1      284
siesta:     65.75661  16.27054  34.56753  1      285
siesta:     73.80844  16.27054  34.56753  1      286
siesta:     13.41972  18.59491  34.56753  1      287
siesta:     21.47155  18.59491  34.56753  1      288
siesta:     29.52338  18.59491  34.56753  1      289
siesta:     37.57521  18.59491  34.56753  1      290
siesta:     45.62704  18.59491  34.56753  1      291
siesta:     53.67887  18.59491  34.56753  1      292
siesta:     61.73070  18.59491  34.56753  1      293
siesta:     69.78253  18.59491  34.56753  1      294
siesta:     77.83436  18.59491  34.56753  1      295
siesta:     17.44563  20.91927  34.56753  1      296
siesta:     25.49746  20.91927  34.56753  1      297
siesta:     33.54929  20.91927  34.56753  1      298
siesta:     41.60112  20.91927  34.56753  1      299
siesta:     49.65295  20.91927  34.56753  1      300
siesta:     57.70478  20.91927  34.56753  1      301
siesta:     65.75661  20.91927  34.56753  1      302
siesta:     73.80844  20.91927  34.56753  1      303
siesta:     81.86027  20.91927  34.56753  1      304
siesta:     21.47155  23.24363  34.56753  1      305
siesta:     29.52338  23.24363  34.56753  1      306
siesta:     37.57521  23.24363  34.56753  1      307
siesta:     45.62704  23.24363  34.56753  1      308
siesta:     53.67887  23.24363  34.56753  1      309
siesta:     61.73070  23.24363  34.56753  1      310
siesta:     69.78253  23.24363  34.56753  1      311
siesta:     77.83436  23.24363  34.56753  1      312
siesta:     17.44563  25.56799  34.56753  1      313
siesta:     25.49746  25.56799  34.56753  1      314
siesta:     33.54929  25.56799  34.56753  1      315
siesta:     41.60112  25.56799  34.56753  1      316
siesta:     49.65295  25.56799  34.56753  1      317
siesta:     57.70478  25.56799  34.56753  1      318
siesta:     65.75661  25.56799  34.56753  1      319
siesta:     73.80844  25.56799  34.56753  1      320
siesta:     81.86027  25.56799  34.56753  1      321
siesta:     21.47155  27.89236  34.56753  1      322
siesta:     29.52338  27.89236  34.56753  1      323
siesta:     37.57521  27.89236  34.56753  1      324
siesta:     45.62704  27.89236  34.56753  1      325
siesta:     53.67887  27.89236  34.56753  1      326
siesta:     61.73070  27.89236  34.56753  1      327
siesta:     69.78253  27.89236  34.56753  1      328
siesta:     77.83436  27.89236  34.56753  1      329
siesta:     85.88619  27.89236  34.56753  1      330
siesta:     25.49746  30.21672  34.56753  1      331
siesta:     33.54929  30.21672  34.56753  1      332
siesta:     41.60112  30.21672  34.56753  1      333
siesta:     49.65295  30.21672  34.56753  1      334
siesta:     57.70478  30.21672  34.56753  1      335
siesta:     65.75661  30.21672  34.56753  1      336
siesta:     73.80844  30.21672  34.56753  1      337
siesta:     81.86027  30.21672  34.56753  1      338
siesta:     21.47155  32.54108  34.56753  1      339
siesta:     29.52338  32.54108  34.56753  1      340
siesta:     37.57521  32.54108  34.56753  1      341
siesta:     45.62704  32.54108  34.56753  1      342
siesta:     53.67887  32.54108  34.56753  1      343
siesta:     61.73070  32.54108  34.56753  1      344
siesta:     69.78253  32.54108  34.56753  1      345
siesta:     77.83436  32.54108  34.56753  1      346
siesta:     85.88619  32.54108  34.56753  1      347
siesta:     25.49746  34.86545  34.56753  1      348
siesta:     33.54929  34.86545  34.56753  1      349
siesta:     41.60112  34.86545  34.56753  1      350
siesta:     49.65295  34.86545  34.56753  1      351
siesta:     57.70478  34.86545  34.56753  1      352
siesta:     65.75661  34.86545  34.56753  1      353
siesta:     73.80844  34.86545  34.56753  1      354
siesta:     81.86027  34.86545  34.56753  1      355
siesta:     89.91210  34.86545  34.56753  1      356
siesta:     29.52338  37.18981  34.56753  1      357
siesta:     37.57521  37.18981  34.56753  1      358
siesta:     45.62704  37.18981  34.56753  1      359
siesta:     53.67887  37.18981  34.56753  1      360
siesta:     61.73070  37.18981  34.56753  1      361
siesta:     69.78253  37.18981  34.56753  1      362
siesta:     77.83436  37.18981  34.56753  1      363
siesta:     85.88619  37.18981  34.56753  1      364
siesta:     25.49746  39.51417  34.56753  1      365
siesta:     33.54929  39.51417  34.56753  1      366
siesta:     41.60112  39.51417  34.56753  1      367
siesta:     49.65295  39.51417  34.56753  1      368
siesta:     57.70478  39.51417  34.56753  1      369
siesta:     65.75661  39.51417  34.56753  1      370
siesta:     73.80844  39.51417  34.56753  1      371
siesta:     81.86027  39.51417  34.56753  1      372
siesta:     89.91210  39.51417  34.56753  1      373
siesta:     29.52338  41.83854  34.56753  1      374
siesta:     37.57521  41.83854  34.56753  1      375
siesta:     45.62704  41.83854  34.56753  1      376
siesta:     53.67887  41.83854  34.56753  1      377
siesta:     61.73070  41.83854  34.56753  1      378
siesta:     69.78253  41.83854  34.56753  1      379
siesta:     77.83436  41.83854  34.56753  1      380
siesta:     85.88619  41.83854  34.56753  1      381
siesta:     93.93802  41.83854  34.56753  1      382
siesta:     33.54929  44.16290  34.56753  1      383
siesta:     41.60112  44.16290  34.56753  1      384
siesta:     49.65295  44.16290  34.56753  1      385
siesta:     57.70478  44.16290  34.56753  1      386
siesta:     65.75661  44.16290  34.56753  1      387
siesta:     73.80844  44.16290  34.56753  1      388
siesta:     81.86027  44.16290  34.56753  1      389
siesta:     89.91210  44.16290  34.56753  1      390
siesta:     29.52338  46.48726  34.56753  1      391
siesta:     37.57521  46.48726  34.56753  1      392
siesta:     45.62704  46.48726  34.56753  1      393
siesta:     53.67887  46.48726  34.56753  1      394
siesta:     61.73070  46.48726  34.56753  1      395
siesta:     69.78253  46.48726  34.56753  1      396
siesta:     77.83436  46.48726  34.56753  1      397
siesta:     85.88619  46.48726  34.56753  1      398
siesta:     93.93802  46.48726  34.56753  1      399
siesta:     33.54929  48.81163  34.56753  1      400
siesta:     41.60112  48.81163  34.56753  1      401
siesta:     49.65295  48.81163  34.56753  1      402
siesta:     57.70478  48.81163  34.56753  1      403
siesta:     65.75661  48.81163  34.56753  1      404
siesta:     73.80844  48.81163  34.56753  1      405
siesta:     81.86027  48.81163  34.56753  1      406
siesta:     89.91210  48.81163  34.56753  1      407
siesta:     97.96393  48.81163  34.56753  1      408
siesta:     37.57521  51.13599  34.56753  1      409
siesta:     45.62704  51.13599  34.56753  1      410
siesta:     53.67887  51.13599  34.56753  1      411
siesta:     61.73070  51.13599  34.56753  1      412
siesta:     69.78253  51.13599  34.56753  1      413
siesta:     77.83436  51.13599  34.56753  1      414
siesta:     85.88619  51.13599  34.56753  1      415
siesta:     93.93802  51.13599  34.56753  1      416
siesta:     33.54929  53.46035  34.56753  1      417
siesta:     41.60112  53.46035  34.56753  1      418
siesta:     49.65295  53.46035  34.56753  1      419
siesta:     57.70478  53.46035  34.56753  1      420
siesta:     65.75661  53.46035  34.56753  1      421
siesta:     73.80844  53.46035  34.56753  1      422
siesta:     81.86027  53.46035  34.56753  1      423
siesta:     89.91210  53.46035  34.56753  1      424
siesta:     97.96393  53.46035  34.56753  1      425
siesta:     37.57521  55.78472  34.56753  1      426
siesta:     45.62704  55.78472  34.56753  1      427
siesta:     53.67887  55.78472  34.56753  1      428
siesta:     61.73070  55.78472  34.56753  1      429
siesta:     69.78253  55.78472  34.56753  1      430
siesta:     77.83436  55.78472  34.56753  1      431
siesta:     85.88619  55.78472  34.56753  1      432
siesta:     93.93802  55.78472  34.56753  1      433
siesta:    101.98985  55.78472  34.56753  1      434
siesta:      6.85210   1.86378  41.01682  1      435
siesta:     14.88537   1.31750  41.01682  1      436
siesta:     22.91865   0.77122  41.01682  1      437
siesta:     30.95193   0.22494  41.01682  1      438
siesta:     38.98520  -0.32134  41.01682  1      439
siesta:     47.01848  -0.86762  41.01682  1      440
siesta:     55.05176  -1.41390  41.01682  1      441
siesta:     63.08504  -1.96018  41.01682  1      442
siesta:      2.99315   4.45592  41.01682  1      443
siesta:     11.02643   3.90964  41.01682  1      444
siesta:     19.05971   3.36336  41.01682  1      445
siesta:     27.09299   2.81709  41.01682  1      446
siesta:     35.12626   2.27081  41.01682  1      447
siesta:     43.15954   1.72453  41.01682  1      448
siesta:     51.19282   1.17825  41.01682  1      449
siesta:     59.22610   0.63197  41.01682  1      450
siesta:     67.25937   0.08569  41.01682  1      451
siesta:      7.16749   6.50179  41.01682  1      452
siesta:     15.20077   5.95551  41.01682  1      453
siesta:     23.23404   5.40923  41.01682  1      454
siesta:     31.26732   4.86295  41.01682  1      455
siesta:     39.30060   4.31667  41.01682  1      456
siesta:     47.33388   3.77040  41.01682  1      457
siesta:     55.36715   3.22412  41.01682  1      458
siesta:     63.40043   2.67784  41.01682  1      459
siesta:     11.34183   8.54766  41.01682  1      460
siesta:     19.37510   8.00138  41.01682  1      461
siesta:     27.40838   7.45510  41.01682  1      462
siesta:     35.44166   6.90882  41.01682  1      463
siesta:     43.47494   6.36254  41.01682  1      464
siesta:     51.50821   5.81626  41.01682  1      465
siesta:     59.54149   5.26998  41.01682  1      466
siesta:     67.57477   4.72371  41.01682  1      467
siesta:      7.48288  11.13980  41.01682  1      468
siesta:     15.51616  10.59353  41.01682  1      469
siesta:     23.54944  10.04725  41.01682  1      470
siesta:     31.58272   9.50097  41.01682  1      471
siesta:     39.61599   8.95469  41.01682  1      472
siesta:     47.64927   8.40841  41.01682  1      473
siesta:     55.68255   7.86213  41.01682  1      474
siesta:     63.71583   7.31585  41.01682  1      475
siesta:     71.74910   6.76957  41.01682  1      476
siesta:     11.65722  13.18567  41.01682  1      477
siesta:     19.69050  12.63939  41.01682  1      478
siesta:     27.72377  12.09312  41.01682  1      479
siesta:     35.75705  11.54684  41.01682  1      480
siesta:     43.79033  11.00056  41.01682  1      481
siesta:     51.82361  10.45428  41.01682  1      482
siesta:     59.85688   9.90800  41.01682  1      483
siesta:     67.89016   9.36172  41.01682  1      484
siesta:     15.83156  15.23154  41.01682  1      485
siesta:     23.86483  14.68526  41.01682  1      486
siesta:     31.89811  14.13898  41.01682  1      487
siesta:     39.93139  13.59270  41.01682  1      488
siesta:     47.96467  13.04643  41.01682  1      489
siesta:     55.99794  12.50015  41.01682  1      490
siesta:     64.03122  11.95387  41.01682  1      491
siesta:     72.06450  11.40759  41.01682  1      492
siesta:     11.97261  17.82369  41.01682  1      493
siesta:     20.00589  17.27741  41.01682  1      494
siesta:     28.03917  16.73113  41.01682  1      495
siesta:     36.07245  16.18485  41.01682  1      496
siesta:     44.10572  15.63857  41.01682  1      497
siesta:     52.13900  15.09229  41.01682  1      498
siesta:     60.17228  14.54601  41.01682  1      499
siesta:     68.20556  13.99974  41.01682  1      500
siesta:     76.23883  13.45346  41.01682  1      501
siesta:     16.14695  19.86956  41.01682  1      502
siesta:     24.18023  19.32328  41.01682  1      503
siesta:     32.21350  18.77700  41.01682  1      504
siesta:     40.24678  18.23072  41.01682  1      505
siesta:     48.28006  17.68444  41.01682  1      506
siesta:     56.31334  17.13816  41.01682  1      507
siesta:     64.34661  16.59188  41.01682  1      508
siesta:     72.37989  16.04560  41.01682  1      509
siesta:     20.32129  21.91542  41.01682  1      510
siesta:     28.35456  21.36914  41.01682  1      511
siesta:     36.38784  20.82287  41.01682  1      512
siesta:     44.42112  20.27659  41.01682  1      513
siesta:     52.45440  19.73031  41.01682  1      514
siesta:     60.48767  19.18403  41.01682  1      515
siesta:     68.52095  18.63775  41.01682  1      516
siesta:     76.55423  18.09147  41.01682  1      517
siesta:     16.46234  24.50757  41.01682  1      518
siesta:     24.49562  23.96129  41.01682  1      519
siesta:     32.52890  23.41501  41.01682  1      520
siesta:     40.56218  22.86873  41.01682  1      521
siesta:     48.59545  22.32246  41.01682  1      522
siesta:     56.62873  21.77618  41.01682  1      523
siesta:     64.66201  21.22990  41.01682  1      524
siesta:     72.69529  20.68362  41.01682  1      525
siesta:     80.72856  20.13734  41.01682  1      526
siesta:     20.63668  26.55344  41.01682  1      527
siesta:     28.66996  26.00716  41.01682  1      528
siesta:     36.70323  25.46088  41.01682  1      529
siesta:     44.73651  24.91460  41.01682  1      530
siesta:     52.76979  24.36832  41.01682  1      531
siesta:     60.80307  23.82204  41.01682  1      532
siesta:     68.83634  23.27577  41.01682  1      533
siesta:     76.86962  22.72949  41.01682  1      534
siesta:     24.81102  28.59931  41.01682  1      535
siesta:     32.84429  28.05303  41.01682  1      536
siesta:     40.87757  27.50675  41.01682  1      537
siesta:     48.91085  26.96047  41.01682  1      538
siesta:     56.94413  26.41419  41.01682  1      539
siesta:     64.97740  25.86791  41.01682  1      540
siesta:     73.01068  25.32163  41.01682  1      541
siesta:     81.04396  24.77535  41.01682  1      542
siesta:     20.95207  31.19145  41.01682  1      543
siesta:     28.98535  30.64517  41.01682  1      544
siesta:     37.01863  30.09890  41.01682  1      545
siesta:     45.05191  29.55262  41.01682  1      546
siesta:     53.08518  29.00634  41.01682  1      547
siesta:     61.11846  28.46006  41.01682  1      548
siesta:     69.15174  27.91378  41.01682  1      549
siesta:     77.18502  27.36750  41.01682  1      550
siesta:     85.21829  26.82122  41.01682  1      551
siesta:     25.12641  33.23732  41.01682  1      552
siesta:     33.15969  32.69104  41.01682  1      553
siesta:     41.19296  32.14476  41.01682  1      554
siesta:     49.22624  31.59848  41.01682  1      555
siesta:     57.25952  31.05221  41.01682  1      556
siesta:     65.29280  30.50593  41.01682  1      557
siesta:     73.32607  29.95965  41.01682  1      558
siesta:     81.35935  29.41337  41.01682  1      559
siesta:     29.30075  35.28319  41.01682  1      560
siesta:     37.33402  34.73691  41.01682  1      561
siesta:     45.36730  34.19063  41.01682  1      562
siesta:     53.40058  33.64435  41.01682  1      563
siesta:     61.43386  33.09807  41.01682  1      564
siesta:     69.46713  32.55180  41.01682  1      565
siesta:     77.50041  32.00552  41.01682  1      566
siesta:     85.53369  31.45924  41.01682  1      567
siesta:     25.44180  37.87534  41.01682  1      568
siesta:     33.47508  37.32906  41.01682  1      569
siesta:     41.50836  36.78278  41.01682  1      570
siesta:     49.54164  36.23650  41.01682  1      571
siesta:     57.57491  35.69022  41.01682  1      572
siesta:     65.60819  35.14394  41.01682  1      573
siesta:     73.64147  34.59766  41.01682  1      574
siesta:     81.67475  34.05138  41.01682  1      575
siesta:     89.70802  33.50511  41.01682  1      576
siesta:     29.61614  39.92120  41.01682  1      577
siesta:     37.64942  39.37493  41.01682  1      578
siesta:     45.68269  38.82865  41.01682  1      579
siesta:     53.71597  38.28237  41.01682  1      580
siesta:     61.74925  37.73609  41.01682  1      581
siesta:     69.78253  37.18981  41.01682  1      582
siesta:     77.81580  36.64353  41.01682  1      583
siesta:     85.84908  36.09725  41.01682  1      584
siesta:     33.79048  41.96707  41.01682  1      585
siesta:     41.82375  41.42079  41.01682  1      586
siesta:     49.85703  40.87451  41.01682  1      587
siesta:     57.89031  40.32824  41.01682  1      588
siesta:     65.92359  39.78196  41.01682  1      589
siesta:     73.95686  39.23568  41.01682  1      590
siesta:     81.99014  38.68940  41.01682  1      591
siesta:     90.02342  38.14312  41.01682  1      592
siesta:     29.93153  44.55922  41.01682  1      593
siesta:     37.96481  44.01294  41.01682  1      594
siesta:     45.99809  43.46666  41.01682  1      595
siesta:     54.03137  42.92038  41.01682  1      596
siesta:     62.06464  42.37410  41.01682  1      597
siesta:     70.09792  41.82783  41.01682  1      598
siesta:     78.13120  41.28155  41.01682  1      599
siesta:     86.16448  40.73527  41.01682  1      600
siesta:     94.19775  40.18899  41.01682  1      601
siesta:     34.10587  46.60509  41.01682  1      602
siesta:     42.13915  46.05881  41.01682  1      603
siesta:     50.17243  45.51253  41.01682  1      604
siesta:     58.20570  44.96625  41.01682  1      605
siesta:     66.23898  44.41997  41.01682  1      606
siesta:     74.27226  43.87369  41.01682  1      607
siesta:     82.30554  43.32741  41.01682  1      608
siesta:     90.33881  42.78114  41.01682  1      609
siesta:     38.28021  48.65096  41.01682  1      610
siesta:     46.31348  48.10468  41.01682  1      611
siesta:     54.34676  47.55840  41.01682  1      612
siesta:     62.38004  47.01212  41.01682  1      613
siesta:     70.41332  46.46584  41.01682  1      614
siesta:     78.44659  45.91956  41.01682  1      615
siesta:     86.47987  45.37328  41.01682  1      616
siesta:     94.51315  44.82700  41.01682  1      617
siesta:     34.42126  51.24310  41.01682  1      618
siesta:     42.45454  50.69682  41.01682  1      619
siesta:     50.48782  50.15054  41.01682  1      620
siesta:     58.52110  49.60427  41.01682  1      621
siesta:     66.55437  49.05799  41.01682  1      622
siesta:     74.58765  48.51171  41.01682  1      623
siesta:     82.62093  47.96543  41.01682  1      624
siesta:     90.65421  47.41915  41.01682  1      625
siesta:     98.68748  46.87287  41.01682  1      626
siesta:     38.59560  53.28897  41.01682  1      627
siesta:     46.62888  52.74269  41.01682  1      628
siesta:     54.66216  52.19641  41.01682  1      629
siesta:     62.69543  51.65013  41.01682  1      630
siesta:     70.72871  51.10385  41.01682  1      631
siesta:     78.76199  50.55758  41.01682  1      632
siesta:     86.79527  50.01130  41.01682  1      633
siesta:     94.82854  49.46502  41.01682  1      634
siesta:     42.76994  55.33484  41.01682  1      635
siesta:     50.80321  54.78856  41.01682  1      636
siesta:     58.83649  54.24228  41.01682  1      637
siesta:     66.86977  53.69600  41.01682  1      638
siesta:     74.90305  53.14972  41.01682  1      639
siesta:     82.93632  52.60344  41.01682  1      640
siesta:     90.96960  52.05717  41.01682  1      641
siesta:     99.00288  51.51089  41.01682  1      642
siesta:     38.91099  57.92699  41.01682  1      643
siesta:     46.94427  57.38071  41.01682  1      644
siesta:     54.97755  56.83443  41.01682  1      645
siesta:     63.01083  56.28815  41.01682  1      646
siesta:     71.04410  55.74187  41.01682  1      647
siesta:     79.07738  55.19559  41.01682  1      648
siesta:     87.11066  54.64931  41.01682  1      649
siesta:     95.14394  54.10303  41.01682  1      650
siesta:    103.17721  53.55675  41.01682  1      651
siesta:      1.49658   2.22796  41.01682  1      652
siesta:      9.52985   1.68168  41.01682  1      653
siesta:     17.56313   1.13540  41.01682  1      654
siesta:     25.59641   0.58912  41.01682  1      655
siesta:     33.62969   0.04285  41.01682  1      656
siesta:     41.66296  -0.50343  41.01682  1      657
siesta:     49.69624  -1.04971  41.01682  1      658
siesta:     57.72952  -1.59599  41.01682  1      659
siesta:     65.76280  -2.14227  41.01682  1      660
siesta:      5.67091   4.27383  41.01682  1      661
siesta:     13.70419   3.72755  41.01682  1      662
siesta:     21.73747   3.18127  41.01682  1      663
siesta:     29.77075   2.63499  41.01682  1      664
siesta:     37.80402   2.08871  41.01682  1      665
siesta:     45.83730   1.54243  41.01682  1      666
siesta:     53.87058   0.99616  41.01682  1      667
siesta:     61.90385   0.44988  41.01682  1      668
siesta:      9.84525   6.31970  41.01682  1      669
siesta:     17.87853   5.77342  41.01682  1      670
siesta:     25.91180   5.22714  41.01682  1      671
siesta:     33.94508   4.68086  41.01682  1      672
siesta:     41.97836   4.13458  41.01682  1      673
siesta:     50.01164   3.58830  41.01682  1      674
siesta:     58.04491   3.04202  41.01682  1      675
siesta:     66.07819   2.49574  41.01682  1      676
siesta:      5.98631   8.91184  41.01682  1      677
siesta:     14.01958   8.36557  41.01682  1      678
siesta:     22.05286   7.81929  41.01682  1      679
siesta:     30.08614   7.27301  41.01682  1      680
siesta:     38.11942   6.72673  41.01682  1      681
siesta:     46.15269   6.18045  41.01682  1      682
siesta:     54.18597   5.63417  41.01682  1      683
siesta:     62.21925   5.08789  41.01682  1      684
siesta:     70.25253   4.54161  41.01682  1      685
siesta:     10.16064  10.95771  41.01682  1      686
siesta:     18.19392  10.41143  41.01682  1      687
siesta:     26.22720   9.86515  41.01682  1      688
siesta:     34.26048   9.31888  41.01682  1      689
siesta:     42.29375   8.77260  41.01682  1      690
siesta:     50.32703   8.22632  41.01682  1      691
siesta:     58.36031   7.68004  41.01682  1      692
siesta:     66.39359   7.13376  41.01682  1      693
siesta:     14.33498  13.00358  41.01682  1      694
siesta:     22.36826  12.45730  41.01682  1      695
siesta:     30.40153  11.91102  41.01682  1      696
siesta:     38.43481  11.36474  41.01682  1      697
siesta:     46.46809  10.81846  41.01682  1      698
siesta:     54.50137  10.27219  41.01682  1      699
siesta:     62.53464   9.72591  41.01682  1      700
siesta:     70.56792   9.17963  41.01682  1      701
siesta:     10.47604  15.59573  41.01682  1      702
siesta:     18.50931  15.04945  41.01682  1      703
siesta:     26.54259  14.50317  41.01682  1      704
siesta:     34.57587  13.95689  41.01682  1      705
siesta:     42.60915  13.41061  41.01682  1      706
siesta:     50.64242  12.86433  41.01682  1      707
siesta:     58.67570  12.31805  41.01682  1      708
siesta:     66.70898  11.77177  41.01682  1      709
siesta:     74.74226  11.22550  41.01682  1      710
siesta:     14.65037  17.64159  41.01682  1      711
siesta:     22.68365  17.09532  41.01682  1      712
siesta:     30.71693  16.54904  41.01682  1      713
siesta:     38.75021  16.00276  41.01682  1      714
siesta:     46.78348  15.45648  41.01682  1      715
siesta:     54.81676  14.91020  41.01682  1      716
siesta:     62.85004  14.36392  41.01682  1      717
siesta:     70.88332  13.81764  41.01682  1      718
siesta:     18.82471  19.68746  41.01682  1      719
siesta:     26.85799  19.14118  41.01682  1      720
siesta:     34.89126  18.59491  41.01682  1      721
siesta:     42.92454  18.04863  41.01682  1      722
siesta:     50.95782  17.50235  41.01682  1      723
siesta:     58.99110  16.95607  41.01682  1      724
siesta:     67.02437  16.40979  41.01682  1      725
siesta:     75.05765  15.86351  41.01682  1      726
siesta:     14.96577  22.27961  41.01682  1      727
siesta:     22.99904  21.73333  41.01682  1      728
siesta:     31.03232  21.18705  41.01682  1      729
siesta:     39.06560  20.64077  41.01682  1      730
siesta:     47.09888  20.09449  41.01682  1      731
siesta:     55.13215  19.54822  41.01682  1      732
siesta:     63.16543  19.00194  41.01682  1      733
siesta:     71.19871  18.45566  41.01682  1      734
siesta:     79.23199  17.90938  41.01682  1      735
siesta:     19.14010  24.32548  41.01682  1      736
siesta:     27.17338  23.77920  41.01682  1      737
siesta:     35.20666  23.23292  41.01682  1      738
siesta:     43.23994  22.68664  41.01682  1      739
siesta:     51.27321  22.14036  41.01682  1      740
siesta:     59.30649  21.59408  41.01682  1      741
siesta:     67.33977  21.04780  41.01682  1      742
siesta:     75.37305  20.50153  41.01682  1      743
siesta:     23.31444  26.37135  41.01682  1      744
siesta:     31.34772  25.82507  41.01682  1      745
siesta:     39.38099  25.27879  41.01682  1      746
siesta:     47.41427  24.73251  41.01682  1      747
siesta:     55.44755  24.18623  41.01682  1      748
siesta:     63.48083  23.63995  41.01682  1      749
siesta:     71.51410  23.09367  41.01682  1      750
siesta:     79.54738  22.54739  41.01682  1      751
siesta:     19.45550  28.96349  41.01682  1      752
siesta:     27.48877  28.41721  41.01682  1      753
siesta:     35.52205  27.87093  41.01682  1      754
siesta:     43.55533  27.32466  41.01682  1      755
siesta:     51.58861  26.77838  41.01682  1      756
siesta:     59.62188  26.23210  41.01682  1      757
siesta:     67.65516  25.68582  41.01682  1      758
siesta:     75.68844  25.13954  41.01682  1      759
siesta:     83.72172  24.59326  41.01682  1      760
siesta:     23.62983  31.00936  41.01682  1      761
siesta:     31.66311  30.46308  41.01682  1      762
siesta:     39.69639  29.91680  41.01682  1      763
siesta:     47.72967  29.37052  41.01682  1      764
siesta:     55.76294  28.82425  41.01682  1      765
siesta:     63.79622  28.27797  41.01682  1      766
siesta:     71.82950  27.73169  41.01682  1      767
siesta:     79.86278  27.18541  41.01682  1      768
siesta:     27.80417  33.05523  41.01682  1      769
siesta:     35.83745  32.50895  41.01682  1      770
siesta:     43.87072  31.96267  41.01682  1      771
siesta:     51.90400  31.41639  41.01682  1      772
siesta:     59.93728  30.87011  41.01682  1      773
siesta:     67.97056  30.32383  41.01682  1      774
siesta:     76.00383  29.77756  41.01682  1      775
siesta:     84.03711  29.23128  41.01682  1      776
siesta:     23.94523  35.64738  41.01682  1      777
siesta:     31.97850  35.10110  41.01682  1      778
siesta:     40.01178  34.55482  41.01682  1      779
siesta:     48.04506  34.00854  41.01682  1      780
siesta:     56.07834  33.46226  41.01682  1      781
siesta:     64.11161  32.91598  41.01682  1      782
siesta:     72.14489  32.36970  41.01682  1      783
siesta:     80.17817  31.82342  41.01682  1      784
siesta:     88.21145  31.27714  41.01682  1      785
siesta:     28.11956  37.69324  41.01682  1      786
siesta:     36.15284  37.14696  41.01682  1      787
siesta:     44.18612  36.60069  41.01682  1      788
siesta:     52.21940  36.05441  41.01682  1      789
siesta:     60.25267  35.50813  41.01682  1      790
siesta:     68.28595  34.96185  41.01682  1      791
siesta:     76.31923  34.41557  41.01682  1      792
siesta:     84.35251  33.86929  41.01682  1      793
siesta:     32.29390  39.73911  41.01682  1      794
siesta:     40.32718  39.19283  41.01682  1      795
siesta:     48.36045  38.64655  41.01682  1      796
siesta:     56.39373  38.10027  41.01682  1      797
siesta:     64.42701  37.55400  41.01682  1      798
siesta:     72.46029  37.00772  41.01682  1      799
siesta:     80.49356  36.46144  41.01682  1      800
siesta:     88.52684  35.91516  41.01682  1      801
siesta:     28.43496  42.33126  41.01682  1      802
siesta:     36.46824  41.78498  41.01682  1      803
siesta:     44.50151  41.23870  41.01682  1      804
siesta:     52.53479  40.69242  41.01682  1      805
siesta:     60.56807  40.14614  41.01682  1      806
siesta:     68.60134  39.59986  41.01682  1      807
siesta:     76.63462  39.05359  41.01682  1      808
siesta:     84.66790  38.50731  41.01682  1      809
siesta:     92.70118  37.96103  41.01682  1      810
siesta:     32.60929  44.37713  41.01682  1      811
siesta:     40.64257  43.83085  41.01682  1      812
siesta:     48.67585  43.28457  41.01682  1      813
siesta:     56.70913  42.73829  41.01682  1      814
siesta:     64.74240  42.19201  41.01682  1      815
siesta:     72.77568  41.64573  41.01682  1      816
siesta:     80.80896  41.09945  41.01682  1      817
siesta:     88.84224  40.55317  41.01682  1      818
siesta:     36.78363  46.42299  41.01682  1      819
siesta:     44.81691  45.87672  41.01682  1      820
siesta:     52.85018  45.33044  41.01682  1      821
siesta:     60.88346  44.78416  41.01682  1      822
siesta:     68.91674  44.23788  41.01682  1      823
siesta:     76.95002  43.69160  41.01682  1      824
siesta:     84.98329  43.14532  41.01682  1      825
siesta:     93.01657  42.59904  41.01682  1      826
siesta:     32.92469  49.01514  41.01682  1      827
siesta:     40.95797  48.46886  41.01682  1      828
siesta:     48.99124  47.92258  41.01682  1      829
siesta:     57.02452  47.37630  41.01682  1      830
siesta:     65.05780  46.83003  41.01682  1      831
siesta:     73.09108  46.28375  41.01682  1      832
siesta:     81.12435  45.73747  41.01682  1      833
siesta:     89.15763  45.19119  41.01682  1      834
siesta:     97.19091  44.64491  41.01682  1      835
siesta:     37.09902  51.06101  41.01682  1      836
siesta:     45.13230  50.51473  41.01682  1      837
siesta:     53.16558  49.96845  41.01682  1      838
siesta:     61.19886  49.42217  41.01682  1      839
siesta:     69.23213  48.87589  41.01682  1      840
siesta:     77.26541  48.32962  41.01682  1      841
siesta:     85.29869  47.78334  41.01682  1      842
siesta:     93.33197  47.23706  41.01682  1      843
siesta:     41.27336  53.10688  41.01682  1      844
siesta:     49.30664  52.56060  41.01682  1      845
siesta:     57.33991  52.01432  41.01682  1      846
siesta:     65.37319  51.46804  41.01682  1      847
siesta:     73.40647  50.92176  41.01682  1      848
siesta:     81.43975  50.37548  41.01682  1      849
siesta:     89.47302  49.82920  41.01682  1      850
siesta:     97.50630  49.28293  41.01682  1      851
siesta:     37.41442  55.69902  41.01682  1      852
siesta:     45.44770  55.15275  41.01682  1      853
siesta:     53.48097  54.60647  41.01682  1      854
siesta:     61.51425  54.06019  41.01682  1      855
siesta:     69.54753  53.51391  41.01682  1      856
siesta:     77.58081  52.96763  41.01682  1      857
siesta:     85.61408  52.42135  41.01682  1      858
siesta:     93.64736  51.87507  41.01682  1      859
siesta:    101.68064  51.32879  41.01682  1      860
siesta:     41.58875  57.74489  41.01682  1      861
siesta:     49.62203  57.19861  41.01682  1      862
siesta:     57.65531  56.65233  41.01682  1      863
siesta:     65.68859  56.10606  41.01682  1      864
siesta:     73.72186  55.55978  41.01682  1      865
siesta:     81.75514  55.01350  41.01682  1      866
siesta:     89.78842  54.46722  41.01682  1      867
siesta:     97.82170  53.92094  41.01682  1      868

siesta: System type = slab      

initatomlists: Number of atoms, orbitals, and projectors:    868  7812  6944

siesta: ******************** Simulation parameters ****************************
siesta:
siesta: The following are some of the parameters of the simulation.
siesta: A complete list of the parameters used, including default values,
siesta: can be found in file out.fdf
siesta:
redata: Spin configuration                          = none
redata: Number of spin components                   = 1
redata: Time-Reversal Symmetry                      = T
redata: Spin spiral                                 = F
redata: Long output                                 =   F
redata: Number of Atomic Species                    =        1
redata: Charge density info will appear in .RHO file
redata: Write Mulliken Pop.                         = NO
redata: Matel table size (NRTAB)                    =     1024
redata: Mesh Cutoff                                 =   300.0000 Ry
redata: Net charge of the system                    =     0.0000 |e|
redata: Min. number of SCF Iter                     =        3
redata: Max. number of SCF Iter                     =      300
redata: SCF convergence failure will abort job
redata: SCF mix quantity                            = Hamiltonian
redata: Mix DM or H after convergence               =   F
redata: Recompute H after scf cycle                 =   F
redata: Mix DM in first SCF step                    =   T
redata: Write Pulay info on disk                    =   F
redata: New DM Occupancy tolerance                  = 0.000000000001
redata: No kicks to SCF
redata: DM Mixing Weight for Kicks                  =     0.5000
redata: Require Harris convergence for SCF          =   F
redata: Harris energy tolerance for SCF             =     0.000100 eV
redata: Require DM convergence for SCF              =   T
redata: DM tolerance for SCF                        =     0.000100
redata: Require EDM convergence for SCF             =   F
redata: EDM tolerance for SCF                       =     0.001000 eV
redata: Require H convergence for SCF               =   T
redata: Hamiltonian tolerance for SCF               =     0.001000 eV
redata: Require (free) Energy convergence for SCF   =   F
redata: (free) Energy tolerance for SCF             =     0.000100 eV
redata: Using DFT-D3 dispersion                     =   T
redata: Using Saved Data (generic)                  =   F
redata: Use continuation files for DM               =   T
redata: Neglect nonoverlap interactions             =   F
redata: Method of Calculation                       = Diagonalization
redata: Electronic Temperature                      =   299.9863 K
redata: Fix the spin of the system                  =   F
redata: Max. number of TDED Iter                    =        1
redata: Number of TDED substeps                     =        3
redata: Dynamics option                             = CG coord. optimization
redata: Variable cell                               =   F
redata: Use continuation files for CG               =   F
redata: Max atomic displ per move                   =     0.2646 Ang
redata: Maximum number of optimization moves        =      200
redata: Force tolerance                             =     0.0100 eV/Ang
mix.SCF: Pulay mixing                            = Pulay
mix.SCF:    Variant                              = stable
mix.SCF:    History steps                        = 12
mix.SCF:    Linear mixing weight                 =     0.100000
mix.SCF:    Mixing weight                        =     0.100000
mix.SCF:    SVD condition                        = 0.1000E-07
redata: Save all siesta data in one NC              =   F
redata: ***********************************************************************

%block SCF.Mixers
  Pulay
%endblock SCF.Mixers

%block SCF.Mixer.Pulay
  # Mixing method
  method pulay
  variant stable

  # Mixing options
  weight 0.1000
  weight.linear 0.1000
  history 12
%endblock SCF.Mixer.Pulay
 
DFT-D3: loading default parameters for functional PBE.
DM_history_depth set to one: no extrapolation allowed by default for geometry relaxation
Size of DM history Fstack: 1
Total number of electrons:  3472.000000
Total ionic charge:  3472.000000

* ProcessorY, Blocksize:    8  64


* Orbital distribution balance (max,min):   128    64

 Kpoints in:            1 . Kpoints trimmed:            1

siesta: k-grid: Number of k-points = 1
siesta: k-points from Monkhorst-Pack grid
siesta: k-cutoff (effective) =    18.119 Ang
siesta: k-point supercell and displacements
siesta: k-grid:     1     0     0      0.000
siesta: k-grid:     0     1     0      0.000
siesta: k-grid:     0     0     1      0.000
 
diag: Algorithm                                     = D&C
diag: Parallel over k                               =   F
diag: Use parallel 2D distribution                  =   T
diag: Parallel block-size                           = 64
diag: Parallel distribution                         =     8 x     8
diag: Used triangular part                          = Lower
diag: Absolute tolerance                            =  0.100E-15
diag: Orthogonalization factor                      =  0.100E-05
diag: Memory factor                                 =  1.0000
 
siesta: Constraint v=[  0.00000,  0.00000,  1.00000] (868): center-dir
  [ 1 -- 868 ]
 
 
ts: **************************************************************
ts: Save H and S matrices                           =    F
ts: Save DM and EDM matrices                        =    F
ts: Only save the overlap matrix S                  =    F
ts: **************************************************************
 
************************ Begin: TS CHECKS AND WARNINGS ************************
************************ End: TS CHECKS AND WARNINGS **************************


                     ====================================
                        Begin CG opt. move =      0
                     ====================================

outcell: Unit cell vectors (Ang):
       36.217182   -1.230000    0.000000
       19.173802   30.750000    0.000000
        0.000000    0.000000   40.000000

outcell: Cell vector modules (Ang)   :   36.238063   36.238063   40.000000
outcell: Cell angles (23,13,12) (deg):     90.0000     90.0000     60.0000
outcell: Cell volume (Ang**3)        :  45490.4854
<dSpData1D:S at geom step 0
  <sparsity:sparsity for geom step 0
    nrows_g=7812 nrows=128 sparsity=.0020 nnzs=122868, refcount: 7>
  <dData1D:(new from dSpData1D) n=122868, refcount: 1>
refcount: 1>
new_DM -- step:     1
Initializing Density Matrix...
 
Attempting to read DM from file... Failed...
DM filled with atomic data:
<dSpData2D:DM initialized from atoms
  <sparsity:sparsity for geom step 0
    nrows_g=7812 nrows=128 sparsity=.0020 nnzs=122868, refcount: 8>
  <dData2D:DM n=122868 m=1, refcount: 1>
refcount: 1>
No. of atoms with KB's overlaping orbs in proc 0. Max # of overlaps:     241     231

InitMesh: MESH = 360 x 360 x 432 = 55987200
InitMesh: Mesh cutoff (required, used) =   300.000   322.366 Ry
New grid distribution [1]: sub = 2
New grid distribution [2]: sub = 2
New grid distribution [3]: sub = 2
Setting up quadratic distribution...

stepf: Fermi-Dirac step function

siesta: Program's energy decomposition (eV):
siesta: Ebs     =    -50734.412059
siesta: Eions   =    244916.362311
siesta: Ena     =     54081.043409
siesta: Ekin    =     95655.853841
siesta: Enl     =     -4306.684093
siesta: Eso     =         0.000000
siesta: Edftu   =         0.000000
siesta: DEna    =      7343.766460
siesta: DUscf   =       470.030538
siesta: DUext   =         0.000000
siesta: Ex      =    -45757.152812
siesta: Ec      =     -4413.158285
siesta: Exc     =    -50170.311097
siesta: EbV     =         0.000000
siesta: eta*DQ  =         0.000000
siesta: Emadel  =         0.000000
siesta: Emeta   =         0.000000
siesta: Emolmec =         0.000000
siesta: Ekinion =         0.000000
siesta: Eharris =   -145273.761098
siesta: Etot    =   -141842.663252
siesta: FreeEng =   -141842.663253

        iscf     Eharris(eV)        E_KS(eV)     FreeEng(eV)     dDmax    Ef(eV) dHmax(eV)
   scf:    1  -145273.761098  -141842.663252  -141842.663253  1.203902 -1.372482  4.746883
timer: Routine,Calls,Time,% = IterSCF        1      11.621  50.42
   scf:    2  -141880.950107  -141862.059595  -141862.059596  0.008965 -1.744637  3.994321
   scf:    3  -141951.370763  -141912.831934  -141912.831934  0.048073 -3.722045  0.297909
   scf:    4  -141914.811678  -141913.973304  -141913.973304  0.007302 -3.969442  0.128592
   scf:    5  -141914.048297  -141914.059537  -141914.059538  0.001048 -3.911935  0.069216
   scf:    6  -141913.933820  -141914.023954  -141914.023954  0.001562 -3.995055  0.126487
   scf:    7  -141914.085028  -141914.072627  -141914.072627  0.001194 -3.943977  0.022339
   scf:    8  -141914.074034  -141914.074007  -141914.074008  0.000223 -3.955324  0.004761
   scf:    9  -141914.074062  -141914.074071  -141914.074071  0.000039 -3.955082  0.003007
   scf:   10  -141914.074132  -141914.074107  -141914.074108  0.000049 -3.953275  0.000695

SCF Convergence by DM+H criterion
max |DM_out - DM_in|         :     0.0000487618
max |H_out - H_in|      (eV) :     0.0006952168
SCF cycle converged after 10 iterations

Using DM_out to compute the final energy and forces
No. of atoms with KB's overlaping orbs in proc 0. Max # of overlaps:     241     231
System symmetry is of type slab but no DFTD3.Periodic list was found. Attempting to guess symmetry for D3.
Could not guess the right amount of periodicity directions for D3.
Enabling periodicity on all directions.

siesta: E_KS(eV) =          -142000.6806

siesta: E_KS - E_eggbox =   -142000.6806

siesta: Atomic forces (eV/Ang):
----------------------------------------
   Tot   -0.000000   -0.000000    0.009101
----------------------------------------
   Max    0.034551
   Res    0.010273    sqrt( Sum f_i^2 / 3N )
----------------------------------------
   Max    0.034551    constrained

Stress tensor Voigt[x,y,z,yz,xz,xy] (kbar):      -25.89      -25.90       -4.85        0.00        0.00        0.00
(Free)E + p*V (eV/cell)  -141464.6338
Target enthalpy (eV/cell)  -142000.6806

                     ====================================
                        Begin CG opt. move =      1
                     ====================================

outcell: Unit cell vectors (Ang):
       36.217182   -1.230000    0.000000
       19.173802   30.750000    0.000000
        0.000000    0.000000   40.000000

outcell: Cell vector modules (Ang)   :   36.238063   36.238063   40.000000
outcell: Cell angles (23,13,12) (deg):     90.0000     90.0000     60.0000
outcell: Cell volume (Ang**3)        :  45490.4854
<dSpData1D:S at geom step 1
  <sparsity:sparsity for geom step 1
    nrows_g=7812 nrows=128 sparsity=.0020 nnzs=122580, refcount: 7>
  <dData1D:(new from dSpData1D) n=122580, refcount: 1>
refcount: 1>
new_DM -- step:     2
Re-using DM from previous geometries...
Number of DMs in history: 1
 DM extrapolation coefficients: 
1   1.00000
New DM after history re-use:
<dSpData2D:SpM extrapolated using coords
  <sparsity:sparsity for geom step 1
    nrows_g=7812 nrows=128 sparsity=.0020 nnzs=122580, refcount: 9>
  <dData2D:(temp array for extrapolation) n=122580 m=1, refcount: 1>
refcount: 1>
No. of atoms with KB's overlaping orbs in proc 0. Max # of overlaps:     239     231

InitMesh: MESH = 360 x 360 x 432 = 55987200
InitMesh: Mesh cutoff (required, used) =   300.000   322.366 Ry
New grid distribution [1]: sub = 2
New grid distribution [2]: sub = 2
New grid distribution [3]: sub = 2
Setting up quadratic distribution...

        iscf     Eharris(eV)        E_KS(eV)     FreeEng(eV)     dDmax    Ef(eV) dHmax(eV)
   scf:    1  -142001.606598  -142000.898557  -142000.898557  0.003680 -3.954267  0.040147
   scf:    2  -142000.822093  -142000.875114  -142000.875114  0.001116 -3.951802  0.270110
   scf:    3  -142000.902108  -142000.899779  -142000.899780  0.000943 -3.953812  0.006534
   scf:    4  -142000.900551  -142000.900196  -142000.900196  0.000078 -3.953560  0.003766
   scf:    5  -142000.900444  -142000.900326  -142000.900326  0.000054 -3.953689  0.001798
   scf:    6  -142000.900397  -142000.900365  -142000.900365  0.000044 -3.953892  0.000564

SCF Convergence by DM+H criterion
max |DM_out - DM_in|         :     0.0000444006
max |H_out - H_in|      (eV) :     0.0005635250
SCF cycle converged after 6 iterations

Using DM_out to compute the final energy and forces
No. of atoms with KB's overlaping orbs in proc 0. Max # of overlaps:     239     231
System symmetry is of type slab but no DFTD3.Periodic list was found. Attempting to guess symmetry for D3.
Could not guess the right amount of periodicity directions for D3.
Enabling periodicity on all directions.

siesta: E_KS(eV) =          -142000.6753

siesta: Atomic forces (eV/Ang):
----------------------------------------
   Tot    0.000004   -0.000003    0.009639
----------------------------------------
   Max    0.312017
   Res    0.107565    sqrt( Sum f_i^2 / 3N )
----------------------------------------
   Max    0.312017    constrained

Stress tensor Voigt[x,y,z,yz,xz,xy] (kbar):      -25.92      -25.97       -4.73        0.00       -0.00        0.04
(Free)E + p*V (eV/cell)  -141464.9105
Target enthalpy (eV/cell)  -142000.6753

                     ====================================
                        Begin CG opt. move =      2
                     ====================================

outcell: Unit cell vectors (Ang):
       36.217182   -1.230000    0.000000
       19.173802   30.750000    0.000000
        0.000000    0.000000   40.000000

outcell: Cell vector modules (Ang)   :   36.238063   36.238063   40.000000
outcell: Cell angles (23,13,12) (deg):     90.0000     90.0000     60.0000
outcell: Cell volume (Ang**3)        :  45490.4854
<dSpData1D:S at geom step 2
  <sparsity:sparsity for geom step 2
    nrows_g=7812 nrows=128 sparsity=.0020 nnzs=122770, refcount: 7>
  <dData1D:(new from dSpData1D) n=122770, refcount: 1>
refcount: 1>
new_DM -- step:     3
Re-using DM from previous geometries...
Number of DMs in history: 1
 DM extrapolation coefficients: 
1   1.00000
New DM after history re-use:
<dSpData2D:SpM extrapolated using coords
  <sparsity:sparsity for geom step 2
    nrows_g=7812 nrows=128 sparsity=.0020 nnzs=122770, refcount: 9>
  <dData2D:(temp array for extrapolation) n=122770 m=1, refcount: 1>
refcount: 1>
No. of atoms with KB's overlaping orbs in proc 0. Max # of overlaps:     241     231

InitMesh: MESH = 360 x 360 x 432 = 55987200
InitMesh: Mesh cutoff (required, used) =   300.000   322.366 Ry
New grid distribution [1]: sub = 2
New grid distribution [2]: sub = 2
New grid distribution [3]: sub = 2
Setting up quadratic distribution...

        iscf     Eharris(eV)        E_KS(eV)     FreeEng(eV)     dDmax    Ef(eV) dHmax(eV)
   scf:    1  -142000.252350  -142000.597109  -142000.597110  0.004446 -3.953672  0.009196
   scf:    2  -142000.595092  -142000.596672  -142000.596672  0.000372 -3.954751  0.049341
   scf:    3  -142000.597315  -142000.597356  -142000.597356  0.000307 -3.953907  0.003115
   scf:    4  -142000.597511  -142000.597438  -142000.597438  0.000033 -3.953958  0.001951
   scf:    5  -142000.597509  -142000.597475  -142000.597475  0.000032 -3.953883  0.000823

SCF Convergence by DM+H criterion
max |DM_out - DM_in|         :     0.0000315009
max |H_out - H_in|      (eV) :     0.0008233363
SCF cycle converged after 5 iterations

Using DM_out to compute the final energy and forces
No. of atoms with KB's overlaping orbs in proc 0. Max # of overlaps:     241     231
System symmetry is of type slab but no DFTD3.Periodic list was found. Attempting to guess symmetry for D3.
Could not guess the right amount of periodicity directions for D3.
Enabling periodicity on all directions.

siesta: E_KS(eV) =          -142000.7139

siesta: Atomic forces (eV/Ang):
----------------------------------------
   Tot    0.000001   -0.000003    0.010861
----------------------------------------
   Max    0.148233
   Res    0.051755    sqrt( Sum f_i^2 / 3N )
----------------------------------------
   Max    0.148233    constrained

Stress tensor Voigt[x,y,z,yz,xz,xy] (kbar):      -25.91      -25.93       -4.79       -0.00        0.00        0.02
(Free)E + p*V (eV/cell)  -141464.7720
Target enthalpy (eV/cell)  -142000.7139

cgvc: Finished line minimization    1.  Mean atomic displacement =    0.0082

                     ====================================
                        Begin CG opt. move =      3
                     ====================================

outcell: Unit cell vectors (Ang):
       36.217182   -1.230000    0.000000
       19.173802   30.750000    0.000000
        0.000000    0.000000   40.000000

outcell: Cell vector modules (Ang)   :   36.238063   36.238063   40.000000
outcell: Cell angles (23,13,12) (deg):     90.0000     90.0000     60.0000
outcell: Cell volume (Ang**3)        :  45490.4854
<dSpData1D:S at geom step 3
  <sparsity:sparsity for geom step 3
    nrows_g=7812 nrows=128 sparsity=.0020 nnzs=122589, refcount: 7>
  <dData1D:(new from dSpData1D) n=122589, refcount: 1>
refcount: 1>
new_DM -- step:     4
Re-using DM from previous geometries...
Number of DMs in history: 1
 DM extrapolation coefficients: 
1   1.00000
New DM after history re-use:
<dSpData2D:SpM extrapolated using coords
  <sparsity:sparsity for geom step 3
    nrows_g=7812 nrows=128 sparsity=.0020 nnzs=122589, refcount: 9>
  <dData2D:(temp array for extrapolation) n=122589 m=1, refcount: 1>
refcount: 1>
No. of atoms with KB's overlaping orbs in proc 0. Max # of overlaps:     239     231

InitMesh: MESH = 360 x 360 x 432 = 55987200
InitMesh: Mesh cutoff (required, used) =   300.000   322.366 Ry
New grid distribution [1]: sub = 2
New grid distribution [2]: sub = 2
New grid distribution [3]: sub = 2
Setting up quadratic distribution...

        iscf     Eharris(eV)        E_KS(eV)     FreeEng(eV)     dDmax    Ef(eV) dHmax(eV)
   scf:    1  -142001.235681  -142000.883780  -142000.883781  0.000484 -3.953872  0.021953
   scf:    2  -142000.864735  -142000.877807  -142000.877807  0.000496 -3.953253  0.149340
   scf:    3  -142000.884667  -142000.883944  -142000.883945  0.000431 -3.953766  0.001307
   scf:    4  -142000.883964  -142000.883956  -142000.883956  0.000014 -3.953734  0.000613

SCF Convergence by DM+H criterion
max |DM_out - DM_in|         :     0.0000135243
max |H_out - H_in|      (eV) :     0.0006132935
SCF cycle converged after 4 iterations

Using DM_out to compute the final energy and forces
No. of atoms with KB's overlaping orbs in proc 0. Max # of overlaps:     239     231
System symmetry is of type slab but no DFTD3.Periodic list was found. Attempting to guess symmetry for D3.
Could not guess the right amount of periodicity directions for D3.
Enabling periodicity on all directions.

siesta: E_KS(eV) =          -142000.7739

siesta: Atomic forces (eV/Ang):
----------------------------------------
   Tot    0.000002   -0.000002    0.010729
----------------------------------------
   Max    0.124402
   Res    0.043608    sqrt( Sum f_i^2 / 3N )
----------------------------------------
   Max    0.124402    constrained

Stress tensor Voigt[x,y,z,yz,xz,xy] (kbar):      -25.92      -25.94       -4.73       -0.00        0.00        0.02
(Free)E + p*V (eV/cell)  -141465.1448
Target enthalpy (eV/cell)  -142000.7739

                     ====================================
                        Begin CG opt. move =      4
                     ====================================

outcell: Unit cell vectors (Ang):
       36.217182   -1.230000    0.000000
       19.173802   30.750000    0.000000
        0.000000    0.000000   40.000000

outcell: Cell vector modules (Ang)   :   36.238063   36.238063   40.000000
outcell: Cell angles (23,13,12) (deg):     90.0000     90.0000     60.0000
outcell: Cell volume (Ang**3)        :  45490.4854
<dSpData1D:S at geom step 4
  <sparsity:sparsity for geom step 4
    nrows_g=7812 nrows=128 sparsity=.0020 nnzs=122379, refcount: 7>
  <dData1D:(new from dSpData1D) n=122379, refcount: 1>
refcount: 1>
new_DM -- step:     5
Re-using DM from previous geometries...
Number of DMs in history: 1
 DM extrapolation coefficients: 
1   1.00000
New DM after history re-use:
<dSpData2D:SpM extrapolated using coords
  <sparsity:sparsity for geom step 4
    nrows_g=7812 nrows=128 sparsity=.0020 nnzs=122379, refcount: 9>
  <dData2D:(temp array for extrapolation) n=122379 m=1, refcount: 1>
refcount: 1>
No. of atoms with KB's overlaping orbs in proc 0. Max # of overlaps:     239     231

InitMesh: MESH = 360 x 360 x 432 = 55987200
InitMesh: Mesh cutoff (required, used) =   300.000   322.366 Ry
New grid distribution [1]: sub = 2
New grid distribution [2]: sub = 2
New grid distribution [3]: sub = 2
Setting up quadratic distribution...

        iscf     Eharris(eV)        E_KS(eV)     FreeEng(eV)     dDmax    Ef(eV) dHmax(eV)
   scf:    1  -142001.550838  -142001.023472  -142001.023472  0.000773 -3.954241  0.041755
   scf:    2  -142000.951151  -142001.000739  -142001.000739  0.000895 -3.953155  0.285500
   scf:    3  -142001.026842  -142001.024047  -142001.024047  0.000779 -3.954031  0.002071
   scf:    4  -142001.024101  -142001.024079  -142001.024079  0.000022 -3.953931  0.000840

SCF Convergence by DM+H criterion
max |DM_out - DM_in|         :     0.0000223457
max |H_out - H_in|      (eV) :     0.0008396662
SCF cycle converged after 4 iterations

Using DM_out to compute the final energy and forces
No. of atoms with KB's overlaping orbs in proc 0. Max # of overlaps:     239     231
System symmetry is of type slab but no DFTD3.Periodic list was found. Attempting to guess symmetry for D3.
Could not guess the right amount of periodicity directions for D3.
Enabling periodicity on all directions.

siesta: E_KS(eV) =          -142000.8487

siesta: Atomic forces (eV/Ang):
----------------------------------------
   Tot    0.000001    0.000000    0.002289
----------------------------------------
   Max    0.087422
   Res    0.031771    sqrt( Sum f_i^2 / 3N )
----------------------------------------
   Max    0.087422    constrained

Stress tensor Voigt[x,y,z,yz,xz,xy] (kbar):      -25.94      -25.96       -4.64        0.00        0.00        0.01
(Free)E + p*V (eV/cell)  -141465.6444
Target enthalpy (eV/cell)  -142000.8487

                     ====================================
                        Begin CG opt. move =      5
                     ====================================

outcell: Unit cell vectors (Ang):
       36.217182   -1.230000    0.000000
       19.173802   30.750000    0.000000
        0.000000    0.000000   40.000000

outcell: Cell vector modules (Ang)   :   36.238063   36.238063   40.000000
outcell: Cell angles (23,13,12) (deg):     90.0000     90.0000     60.0000
outcell: Cell volume (Ang**3)        :  45490.4854
<dSpData1D:S at geom step 5
  <sparsity:sparsity for geom step 5
    nrows_g=7812 nrows=128 sparsity=.0020 nnzs=122126, refcount: 7>
  <dData1D:(new from dSpData1D) n=122126, refcount: 1>
refcount: 1>
new_DM -- step:     6
Re-using DM from previous geometries...
Number of DMs in history: 1
 DM extrapolation coefficients: 
1   1.00000
New DM after history re-use:
<dSpData2D:SpM extrapolated using coords
  <sparsity:sparsity for geom step 5
    nrows_g=7812 nrows=128 sparsity=.0020 nnzs=122126, refcount: 9>
[...]
   21.95924029   19.46301052   21.75699447   1     570  C
   26.21253408   19.17271349   21.74303882   1     571  C
   30.46616030   18.88367172   21.72641421   1     572  C
   34.71897668   18.59617579   21.71455652   1     573  C
   38.97011626   18.30943325   21.71455642   1     574  C
   43.21936037   18.02177135   21.72524293   1     575  C
   47.46757745   17.73256515   21.73894273   1     576  C
   15.66549277   21.12726982   21.76989900   1     577  C
   19.91648767   20.83542734   21.77265834   1     578  C
   24.16884256   20.54408597   21.76019041   1     579  C
   28.42233122   20.25427284   21.73904768   1     580  C
   32.67542791   19.96624279   21.72035732   1     581  C
   36.92732207   19.68000393   21.71191292   1     582  C
   41.17750314   19.39352340   21.72006271   1     583  C
   45.42622030   19.10527001   21.73675181   1     584  C
   17.87421840   22.20842852   21.78521755   1     585  C
   22.12586003   21.91647039   21.77875337   1     586  C
   26.37871484   21.62541790   21.75758498   1     587  C
   30.63184316   21.33661371   21.73226987   1     588  C
   34.88430299   21.05001268   21.71537895   1     589  C
   39.13529328   20.76430751   21.71537894   1     590  C
   43.38475839   20.47752301   21.73120216   1     591  C
   47.63350944   20.18829521   21.75330700   1     592  C
   15.83279155   23.58216977   21.79245569   1     593  C
   20.08360949   23.28934093   21.79612869   1     594  C
   24.33583879   22.99738759   21.77911887   1     595  C
   28.58875696   22.70724682   21.75036486   1     596  C
   32.84124281   22.41974989   21.72471709   1     597  C
   37.09287256   22.13440077   21.71455589   1     598  C
   41.34305104   21.84878152   21.72471738   1     599  C
   45.59232577   21.56095575   21.74847969   1     600  C
   49.84131190   21.27052943   21.77306121   1     601  C
   18.04208394   24.66294843   21.80803854   1     602  C
   22.29359047   24.37003931   21.80001105   1     603  C
   26.54618228   24.07851104   21.77258576   1     604  C
   30.79851061   23.78991378   21.74070362   1     605  C
   35.05033095   23.50400974   21.72006106   1     606  C
   39.30115965   23.21913245   21.72035632   1     607  C
   43.55101312   22.93275709   21.74070381   1     608  C
   47.80031409   22.64351006   21.76953878   1     609  C
   20.25206218   25.74336589   21.81667404   1     610  C
   24.50391568   25.45085786   21.79607745   1     611  C
   28.75612542   25.16071958   21.76167209   1     612  C
   33.00793246   24.87354767   21.73120145   1     613  C
   37.25926425   24.58874454   21.71982620   1     614  C
   41.50972713   24.30374557   21.73227020   1     615  C
   45.75935840   24.01611119   21.76167261   1     616  C
   50.00894491   23.72568251   21.79235743   1     617  C
   18.21079007   27.11728709   21.82632778   1     618  C
   22.46230780   26.82379382   21.81676979   1     619  C
   26.71426832   26.53220707   21.78537601   1     620  C
   30.96586639   26.24364198   21.74848025   1     621  C
   35.21737340   25.95818210   21.72524120   1     622  C
   39.46825914   25.67369939   21.72641375   1     623  C
   43.71827296   25.38779257   21.75036527   1     624  C
   47.96802901   25.09866726   21.78537567   1     625  C
   52.21820626   24.80674697   21.81238891   1     626  C
   20.42120996   28.19751217   21.83097812   1     627  C
   24.67276519   27.90470695   21.80795761   1     628  C
   28.92435244   27.61453915   21.76953980   1     629  C
   33.17560603   27.32763090   21.73675120   1     630  C
   37.42656906   27.04318114   21.72499923   1     631  C
   41.67714802   26.75840771   21.73904839   1     632  C
   45.92710972   26.47108233   21.77258622   1     633  C
   50.17739993   26.18041138   21.80795772   1     634  C
   22.63175408   29.27795243   21.82615468   1     635  C
   26.88284756   28.98618303   21.79235819   1     636  C
   31.13403324   28.69768680   21.75330727   1     637  C
   35.38520498   28.41242433   21.72922137   1     638  C
   39.63595632   28.12820558   21.73088538   1     639  C
   43.88640256   27.84265919   21.75758506   1     640  C
   48.13672811   27.55356246   21.79607807   1     641  C
   52.38717162   27.26135619   21.82615544   1     642  C
   20.59092894   30.65187577   21.83604936   1     643  C
   24.84198832   30.35892987   21.81238828   1     644  C
   29.09288606   30.06858324   21.77306175   1     645  C
   33.34372380   29.78184884   21.73894233   1     646  C
   37.59468466   29.49747199   21.72764369   1     647  C
   41.84539026   29.21292623   21.74303840   1     648  C
   46.09600240   28.92585655   21.77911908   1     649  C
   50.34653069   28.63518055   21.81677057   1     650  C
   54.59743541   28.34180316   21.83604911   1     651  C
    0.79354941    1.17819686   21.83604912   1     652  C
    5.04445415    0.88481951   21.81677059   1     653  C
    9.29498242    0.59414350   21.77911909   1     654  C
   13.54559448    0.30707382   21.74303843   1     655  C
   17.79630016    0.02252806   21.72764371   1     656  C
   22.04726106   -0.26184897   21.73894230   1     657  C
   26.29809875   -0.54858338   21.77306173   1     658  C
   30.54899650   -0.83892987   21.81238827   1     659  C
   34.80005594   -1.13187578   21.83604934   1     660  C
    3.00381324    2.25864378   21.82615548   1     661  C
    7.25425677    1.96643758   21.79607808   1     662  C
   11.50458227    1.67734081   21.75758507   1     663  C
   15.75502850    1.39179449   21.73088539   1     664  C
   20.00577988    1.10757574   21.72922136   1     665  C
   24.25695160    0.82231316   21.75330722   1     666  C
   28.50813728    0.53381697   21.79235819   1     667  C
   32.75923077    0.24204757   21.82615467   1     668  C
    5.21358501    3.33958867   21.80795777   1     669  C
    9.46387512    3.04891766   21.77258623   1     670  C
   13.71383675    2.76159228   21.73904839   1     671  C
   17.96441572    2.47681889   21.72499923   1     672  C
   22.21537876    2.19236912   21.73675117   1     673  C
   26.46663233    1.90546078   21.76953979   1     674  C
   30.71821960    1.61529300   21.80795762   1     675  C
   34.96977488    1.32248779   21.83097812   1     676  C
    3.17277856    4.71325309   21.81238897   1     677  C
    7.42295583    4.42133276   21.78537573   1     678  C
   11.67271182    4.13220728   21.75036527   1     679  C
   15.92272562    3.84630048   21.72641375   1     680  C
   20.17361144    3.56181788   21.72524122   1     681  C
   24.42511843    3.27635806   21.74848024   1     682  C
   28.67671657    2.98779289   21.78537601   1     683  C
   32.92867711    2.69620617   21.81676978   1     684  C
   37.18019483    2.40271291   21.82632779   1     685  C
    5.38203995    5.79431747   21.79235738   1     686  C
    9.63162644    5.50388866   21.76167267   1     687  C
   13.88125763    5.21625419   21.73227023   1     688  C
   18.13172062    4.93125535   21.71982622   1     689  C
   22.38305240    4.64645235   21.73120147   1     690  C
   26.63485932    4.35928044   21.76167208   1     691  C
   30.88706914    4.06914215   21.79607743   1     692  C
   35.13892261    3.77663415   21.81667402   1     693  C
    7.59067066    6.87648991   21.76953867   1     694  C
   11.83997161    6.58724268   21.74070387   1     695  C
   16.08982517    6.30086736   21.72035632   1     696  C
   20.34065389    6.01599022   21.72006109   1     697  C
   24.59247424    5.73008619   21.74070364   1     698  C
   28.84480257    5.44148895   21.77258575   1     699  C
   33.09739441    5.14996069   21.80001103   1     700  C
   37.34890091    4.85705155   21.80803856   1     701  C
    5.54967293    8.24947061   21.77306106   1     702  C
    9.79865895    7.95904413   21.74847969   1     703  C
   14.04793376    7.67121832   21.72471739   1     704  C
   18.29811248    7.38559919   21.71455586   1     705  C
   22.54974200    7.10025009   21.72471709   1     706  C
   26.80222784    6.81275317   21.75036486   1     707  C
   31.05514608    6.52261237   21.77911888   1     708  C
   35.30737529    6.23065902   21.79612867   1     709  C
   39.55819329    5.93783030   21.79245565   1     710  C
    7.75747531    9.33170484   21.75330686   1     711  C
   12.00622629    9.04247696   21.73120224   1     712  C
   16.25569167    8.75569250   21.71537891   1     713  C
   20.50668189    8.46998741   21.71537894   1     714  C
   24.75914171    8.18338624   21.73226987   1     715  C
   29.01226998    7.89458207   21.75758502   1     716  C
   33.26512483    7.60352963   21.77875339   1     717  C
   37.51676640    7.31157155   21.78521758   1     718  C
    9.96476443   10.41473013   21.73675179   1     719  C
   14.21348172   10.12647682   21.72006270   1     720  C
   18.46366299    9.83999623   21.71191289   1     721  C
   22.71555695    9.55375728   21.72035735   1     722  C
   26.96865364    9.26572715   21.73904770   1     723  C
   31.22214236    8.97591407   21.76019046   1     724  C
   35.47449718    8.68457277   21.77265835   1     725  C
   39.72549207    8.39273029   21.76989887   1     726  C
    7.92340729   11.78743495   21.73894258   1     727  C
   12.17162436   11.49822891   21.72524296   1     728  C
   16.42086878   11.21056691   21.71455641   1     729  C
   20.67200818   10.92382428   21.71455650   1     730  C
   24.92482455   10.63632833   21.72641421   1     731  C
   29.17845079   10.34728651   21.74303885   1     732  C
   33.43174460   10.05698961   21.75699450   1     733  C
   37.68347498    9.76596342   21.76170339   1     734  C
   41.93343243    9.47468379   21.75355609   1     735  C
   10.13010277   12.87069677   21.72922210   1     736  C
   14.37853853   12.58184008   21.71982714   1     737  C
   18.62861526   12.29430827   21.71537842   1     738  C
   22.88072813   12.00689778   21.71982735   1     739  C
   27.13433947   11.71835276   21.73088567   1     740  C
   31.38813764   11.42867135   21.74290397   1     741  C
   35.64100218   11.13845102   21.75023458   1     742  C
   39.89173987   10.84776929   21.74886195   1     743  C
   12.33658505   13.95394921   21.72500069   1     744  C
   16.58560650   13.66536605   21.72035644   1     745  C
   20.83685201   13.37752149   21.72006218   1     746  C
   25.08998630   13.08922773   21.72500001   1     747  C
   29.34389779   12.79987435   21.73222022   1     748  C
   33.59764413   12.51021355   21.73845096   1     749  C
   37.84943582   12.22036237   21.74094720   1     750  C
   42.09905301   11.93031876   21.73711472   1     751  C
   10.29516185   15.32668717   21.72764427   1     752  C
   14.54343851   15.03736321   21.72641401   1     753  C
   18.79331296   14.74851870   21.72471760   1     754  C
   23.04575047   14.45994691   21.72524210   1     755  C
   27.29952355   14.17078169   21.72764403   1     756  C
   31.55341430   13.88149934   21.72999671   1     757  C
   35.80646744   13.59232930   21.73175095   1     758  C
   40.05709585   13.30291753   21.73226416   1     759  C
   44.30581541   13.01338734   21.72997986   1     760  C
   12.50162114   16.40984718   21.73088537   1     761  C
   16.75058920   16.12034608   21.73226998   1     762  C
   21.00170932   15.83106047   21.73120228   1     763  C
   25.25510203   15.54172346   21.72922134   1     764  C
   29.50898243   15.25239609   21.72679640   1     765  C
   33.76272873   14.96347803   21.72495739   1     766  C
   38.01471376   14.67503667   21.72504922   1     767  C
   42.26421632   14.38612017   21.72697289   1     768  C
   14.70849898   17.49267069   21.73904769   1     769  C
   18.95854372   17.20265773   21.74070435   1     770  C
   23.21084422   16.91289283   21.73675137   1     771  C
   27.46462290   16.62334279   21.72997992   1     772  C
   31.71857447   16.33438592   21.72280313   1     773  C
   35.97142622   16.04635586   21.71958526   1     774  C
   40.22215969   15.75830827   21.72146608   1     775  C
   44.47090987   15.46932720   21.72679708   1     776  C
   12.66694338   18.86563215   21.74303889   1     777  C
   16.91605036   18.57502810   21.75036462   1     778  C
   21.16721393   18.28458621   21.74847948   1     779  C
   25.42031694   17.99440859   21.73894242   1     780  C
   29.67424457   17.70505200   21.72697259   1     781  C
   33.92766677   17.41703368   21.71754794   1     782  C
   38.17942034   17.12983314   21.71596410   1     783  C
   42.42908407   16.84189468   21.72280368   1     784  C
   46.67739838   16.55262109   21.73221992   1     785  C
   14.87413835   19.94806665   21.75758463   1     786  C
   19.12450303   19.65681982   21.76167213   1     787  C
   23.37656182   19.36597146   21.75330686   1     788  C
   27.63003850   19.07598717   21.73711491   1     789  C
   31.88362199   18.78743165   21.72146677   1     790  C
   36.13613715   18.50056391   21.71314320   1     791  C
   40.38693948   18.21370062   21.71754804   1     792  C
   44.63592731   17.92530584   21.72999743   1     793  C
   17.08231388   21.02958276   21.77258508   1     794  C
   21.33368733   20.73803525   21.76953875   1     795  C
   25.58620768   20.44723607   21.75355617   1     796  C
   29.83972469   20.15807412   21.73226421   1     797  C
   34.09276754   19.87073445   21.71596456   1     798  C
   38.34434054   19.58452655   21.71314332   1     799  C
   42.59425007   19.29763529   21.72495774   1     800  C
   46.84277690   19.00858465   21.74290475   1     801  C
   15.04086218   22.40323356   21.77911829   1     802  C
   19.29131725   22.11085979   21.78537502   1     803  C
   23.54321924   21.81910281   21.77306127   1     804  C
   27.79618127   21.52885096   21.74886225   1     805  C
   32.04920460   21.24077077   21.72504941   1     806  C
   36.30149766   20.95490382   21.71314350   1     807  C
   40.55210182   20.66898487   21.71958569   1     808  C
   44.80138255   20.38130009   21.73845095   1     809  C
   49.04992319   20.09120677   21.76019045   1     810  C
   17.24966672   23.48440678   21.79607681   1     811  C
   21.50081334   23.19185149   21.79235689   1     812  C
   25.75317964   22.90034588   21.76989930   1     813  C
   30.00603378   22.61124214   21.74094690   1     814  C
   34.25844543   22.32465125   21.71958461   1     815  C
   38.50978713   22.03942484   21.71596384   1     816  C
   42.75983050   21.75313799   21.73175033   1     817  C
   47.00888450   21.46423903   21.75699445   1     818  C
   19.45918555   24.56510130   21.80795631   1     819  C
   23.71082352   24.27268089   21.79245553   1     820  C
   27.96344154   23.98216869   21.76170312   1     821  C
   32.21567749   23.69452148   21.73175015   1     822  C
   36.46736701   23.40925914   21.71754692   1     823  C
   40.71805573   23.12418367   21.72504923   1     824  C
   44.96768543   22.83677937   21.75023459   1     825  C
   49.21695145   22.54667151   21.77875303   1     826  C
   17.41785848   25.93895919   21.81677086   1     827  C
   21.66921593   25.64565999   21.81238720   1     828  C
   25.92123261   25.35373675   21.78521836   1     829  C
   30.17328923   25.06475969   21.75023443   1     830  C
   34.42499478   24.77887886   21.72495610   1     831  C
   38.67619137   24.49425222   21.72146595   1     832  C
   42.92650435   24.20838487   21.74094716   1     833  C
   47.17605679   23.91952187   21.77265829   1     834  C
   51.42567162   23.62819697   21.80001172   1     835  C
   19.62794496   27.01929032   21.82615422   1     836  C
   23.87948921   26.72637076   21.80803889   1     837  C
   28.13142166   26.43589453   21.77265862   1     838  C
   32.38294832   26.14847796   21.73845084   1     839  C
   36.63431229   25.86371242   21.72280181   1     840  C
   40.88515383   25.57899811   21.73226490   1     841  C
   45.13505916   25.29185688   21.76170431   1     842  C
   49.38476912   25.00174678   21.79612933   1     843  C
   21.83832410   28.09964149   21.82632693   1     844  C
   26.08983116   27.80758114   21.79612993   1     845  C
   30.34134492   27.51876088   21.75699517   1     846  C
   34.59263002   27.23318914   21.72999613   1     847  C
   38.84351092   26.94882072   21.72697168   1     848  C
   43.09405353   26.66336982   21.74886265   1     849  C
   47.34397744   26.37467795   21.78521896   1     850  C
   51.59424249   26.08287387   21.81667573   1     851  C
   19.79738314   29.47365840   21.83604902   1     852  C
   24.04881048   29.18047658   21.81667478   1     853  C
   28.29989915   28.88978649   21.77875419   1     854  C
   32.55105857   28.60273644   21.74290424   1     855  C
   36.80207829   28.31827108   21.72679619   1     856  C
   41.05288011   28.03368629   21.73711528   1     857  C
   45.30330395   27.74691347   21.76989985   1     858  C
   49.55358523   27.45656210   21.80803923   1     859  C
   53.80416649   27.16345838   21.83097857   1     860  C
   22.00803264   30.55403474   21.83097830   1     861  C
   26.25891094   30.26183113   21.80001187   1     862  C
   30.50990770   29.97286939   21.76019020   1     863  C
   34.76067512   29.68749992   21.73221991   1     864  C
   39.01153309   29.40326628   21.72997947   1     865  C
   43.26233322   29.11807047   21.75355595   1     866  C
   47.51295967   28.82947645   21.79245616   1     867  C
   51.76345498   28.53762709   21.82632762   1     868  C

siesta: Program's energy decomposition (eV):
siesta: Ebs     =    -46064.567170
siesta: Eions   =    244916.362311
siesta: Ena     =     54081.507310
siesta: Ekin    =     98651.994940
siesta: Enl     =     -5004.879727
siesta: Eso     =         0.000000
siesta: Edftu   =         0.000000
siesta: DEna    =      5684.511059
siesta: DUscf   =       288.990377
siesta: DUext   =         0.000000
siesta: Ex      =    -46298.972942
siesta: Ec      =     -4402.883405
siesta: Exc     =    -50701.856347
siesta: EbV     =         0.000000
siesta: eta*DQ  =         0.000000
siesta: Emadel  =         0.000000
siesta: Emeta   =         0.000000
siesta: Emolmec =         0.000000
siesta: Ekinion =         0.000000
siesta: Eharris =   -142001.050568
siesta: Etot    =   -142001.048755
siesta: FreeEng =   -142001.048755

siesta: Final energy (eV):
siesta:  Band Struct. =  -46064.567170
siesta:       Kinetic =   98651.994940
siesta:       Hartree = 2301094.501615
siesta:         Edftu =       0.000000
siesta:       Eso     =       0.000000
siesta:    Ext. field =       0.000000
siesta:         Exch. =  -46298.972942
siesta:         Corr. =   -4402.883405
siesta:     Bulk bias =       0.000000
siesta:   Exch.-corr. =  -50701.856347
siesta:  Ion-electron =-4691473.478310
siesta:       Ion-ion = 2200512.743403
siesta:       Ekinion =       0.000000
siesta: D3 dispersion =     -84.954055
siesta:         Total = -142001.048755
siesta:         Fermi =      -3.956710

siesta: Stress tensor (static) (eV/Ang**3):
siesta:    -0.016257    0.000002    0.000000
siesta:     0.000002   -0.016260    0.000000
siesta:     0.000000    0.000000   -0.002571

siesta: Cell volume =      45490.485415 Ang**3

siesta: Pressure (static):
siesta:                Solid            Molecule  Units
siesta:           0.00012739          0.00012726  Ry/Bohr**3
siesta:           0.01169622          0.01168406  eV/Ang**3
siesta:          18.73941157         18.71992822  kBar
(Free)E+ p_basis*V_orbitals  =     -141477.952052
(Free)Eharris+ p_basis*V_orbitals  =     -141477.953866

siesta: Electric dipole (a.u.)  =    0.000000   -0.000000    0.000037
siesta: Electric dipole (Debye) =    0.000000   -0.000000    0.000095

cite: Please see "Graphene.bib" for an exhaustive BiBTeX file.
cite: Please clearly indicate Siesta version in published work: 5.0.0-alpha-112-g6e4f53aee-dirty
cite: This calculation has made use of the following articles
cite: which are encouraged to be cited in a published work.
        Primary SIESTA paper
          DOI: www.doi.org/10.1088/0953-8984/14/11/302
 
 
>> End of run:  30-NOV-2024  22:11:36
Job completed
