Siesta Version  : 5.0.0-alpha-112-g6e4f53aee-dirty
Architecture    : ----
Compiler version: Intel-2021.8.0.20221119
Compiler flags  : -O2 -ip -xHost -fp-model=strict -prec-div -prec-sqrt
PP flags        : ----
Libraries       : ----
Parallelisations: MPI
GEMM3M support
NetCDF support
NetCDF-4 support

Runtime information:
* Directory : /n/holylabs/LABS/kaxiras_lab/axzhu/projects/AM207-final-project/N_6/PSO_z
* Running on 64 nodes in parallel.
>> Start of run:   1-DEC-2024  14:19:34

                           *********************** 
                           *  WELCOME TO SIESTA  * 
                           *********************** 

reinit: Reading from standard input
reinit: Dumping input in INPUT_TMP.48981
************************** Dump of input data file ****************************
#################################
#				#
#	Basic Information	#
#	      			#
#################################
SystemName      Graphene
SystemLabel     Graphene
#########################################
#					#
#	Structural Information		#
#					#
#########################################
%include structure.fdf
#################################
#                               #
#       DFT Parameters          #
#                               #
#################################
SolutionMethod diagon           # Method of solving system. Can change to OrderN, transiesta, etc.
#Diag.Algorithm MRRR
#NumberOfEigenStates -20 # this will include first 10 conduction bands
XC.Functional   GGA
XC.Authors      PBE
DFTD3 true
Spin non-polarized
# This is causing memory issues, keep it low for now.
Mesh.Cutoff 300 Ry              # Cut off plane waves with kinetic energy higher than this.
MaxSCFIterations 300            # Max number of iterations in the SCF loop.
DM.UseSaveDM true
MinSCFIterations       3
SCF.DM.Tolerance       0.0001
SCF.Mixer.Weight       0.10
SCF.Mixer.History      12
SCF.Mix.First          true
#################################
#                               #
#             Basis             #
#                               #
#################################
#PAO.BasisSize   DZP
PAO.Basis < basis.fdf
#########################################
#					#
#	k-points, Bands, DOS		#
#		  	 		#
#########################################
%block kgrid_Monkhorst_Pack
   1  0  0  0.0
   0  1  0  0.0
   0  0  1  0.0
%endblock kgrid_Monkhorst_Pack
#BandLinesScale ReciprocalLatticeVectors
#%block BandLines
#1   0.6666666667  0.3333333333  0.0000000000  K
#10  0.0000000000  0.0000000000  0.0000000000  Gamma
#10  0.5000000000  0.0000000000  0.0000000000  M
#10  0.6666666667  0.3333333333  0.0000000000  K
#%endblock BandLines
# Local density of states (LDOS)
# %block LocalDensityOfStates
# EF 8.40 8.50 eV
# %endblock LocalDensityOfStates
#########################################
#                                       #
#             Wavefunctions             #
#                                       #
#########################################
#WaveFuncKPointsScale ReciprocalLatticeVectors
#%block WaveFuncKPoints
#0.666 0.333 0.000 from 4375 to 4378 # K wavefuncs 4375 to 4378
#0.000 0.000 0.000 from 4375 to 4378 # Gamma wavefuncs 4375 to 4378
#0.500 0.000 0.000 from 4375 to 4378 # M wavefuncs 4375 to 4378
#%endblock WaveFuncKPoints
#WriteDenchar T
#########################################
#                                       #
#       Geometry Optimisation           #
#                                       #
#########################################
MD.UseSaveXV true
MD.TypeOfRun           CG                  # Conjugate Gradient
MD.NumCGsteps          200                 # Max number of steps
MD.MaxForceTol         0.01    eV/Ang      # 10 meV/Ang
MD.VariableCell        false               # Don't relax cell
MD.MaxCGDispl          0.5 Bohr            # Maximum displacement of any atom
# Fix COM in Z direction only
%block Geometry.Constraints
 center all 0.0 0.0 1.0
%endblock Geometry.Constraints
************************** End of input data file *****************************

reinit: -----------------------------------------------------------------------
reinit: System Name: Graphene
reinit: -----------------------------------------------------------------------
reinit: System Label: Graphene
reinit: -----------------------------------------------------------------------

initatom: Reading input for the pseudopotentials and atomic orbitals ----------
Species number:   1 Atomic number:    6 Label: C
 

---- Processing specs for species: C
Ground state valence configuration:   2s02  2p02
Reading pseudopotential information in PSML from:
  C.psml
PSML file version: 1.1
Using libxc ids:  101 130
GGA--PBE XC_GGA_X_PBE--XC_GGA_C_PBE pb
 Using ATOM defaults for log grid...
PSML uuid: 297821e0-be41-11e7-6802-e1ff7dfff095

---- Pseudopotential check for C 

Pseudized shells:
2s( 2.00) rc: 1.20
2p( 2.00) rc: 1.26
Valence configuration for ps generation: 2s:2p: Total charge:   4.000000
For C, standard SIESTA heuristics set lmxkb to 3
 (one more than the basis l, including polarization orbitals).
Use PS.lmax or PS.KBprojectors blocks to override.
C pseudopotential only contains V_ls up to l=1 -- lmxkb reset.

<basis_specs>
===============================================================================
C                    Z=   6    Mass=  12.011        Charge= 0.99941    
Lmxo=2 Lmxkb= 1    BasisType=split      Semic=F
L=0  Nsemic=0  Cnfigmx=2
          i=1  nzeta=1  polorb=0  (2s)
            splnorm:   0.15000    
               vcte:    132.57    
               rinn:    4.5256    
               qcoe:    0.0000    
               qyuk:    0.0000    
               qwid:   0.10000E-01
                rcs:    6.0009    
            lambdas:    1.0000    
L=1  Nsemic=0  Cnfigmx=2
          i=1  nzeta=1  polorb=0  (2p)
            splnorm:   0.15000    
               vcte:    6.0639    
               rinn:    6.0646    
               qcoe:    0.0000    
               qyuk:    0.0000    
               qwid:   0.10000E-01
                rcs:    6.7108    
            lambdas:    1.0000    
L=2  Nsemic=0  Cnfigmx=3
          i=1  nzeta=1  polorb=0  (3d)
            splnorm:   0.15000    
               vcte:    14.478    
               rinn:    4.3208    
               qcoe:    0.0000    
               qyuk:    0.0000    
               qwid:   0.10000E-01
                rcs:    6.2254    
            lambdas:    1.0000    
-------------------------------------------------------------------------------
L=0  Nkbl=1  erefs: 0.17977+309
L=1  Nkbl=1  erefs: 0.17977+309
===============================================================================
</basis_specs>

atom: Called for C                     (Z =   6)
NOTE: C pseudopotential has channels up to l= 1
NOTE: PAOs with higher l will be generated with V_local

read_vps: Pseudopotential generation method:
read_vps: ONCVPSP-3.Hamann's oncvpsp                        
Valence charge in pseudo generation:    4.00000

read_vps: Pseudopotential includes a core correction:
read_vps: Pseudo-core for xc-correction

xc_check: Exchange-correlation functional:
xc_check: GGA Perdew, Burke & Ernzerhof 1996
Got Vlocal (oncv-fit) from psml data
Choosing vlocal chloc cutoff:  4.139772
qtot up to nchloc:    3.99998844
atom: Maximum radius for chlocal:    4.13977
atom: Maximum radius for r*vlocal+2*Zval:    4.13977
Reading KB projs from C psml data
Using scalar-relativistic projectors in PSML file

PSML: Kleinman-Bylander projectors: 
   l= 0   rc=  1.231096   Ekb= 12.963096
   l= 0   rc=  1.231096   Ekb=  0.771007
   l= 1   rc=  1.294237   Ekb= -8.399923
   l= 1   rc=  1.294237   Ekb= -1.755033

PSML: Total number of  Kleinman-Bylander projectors:   8
atom: -------------------------------------------------------------------------

atom: SANKEY-TYPE ORBITALS:

atom: basis set generated (by rescaling the valence charge)
atom: for a cation of charge   0.9994

SPLIT: Orbitals with angular momentum L= 0

SPLIT: Basis orbitals for state 2s

   izeta = 1
                 lambda =    1.000000
                     rc =    6.099293
                 energy =   -2.079355
                kinetic =    1.090115
    potential(screened) =   -3.169470
       potential(ionic) =   -5.727963

SPLIT: Orbitals with angular momentum L= 1

SPLIT: Basis orbitals for state 2p

   izeta = 1
                 lambda =    1.000000
                     rc =    6.740804
                 energy =   -1.441657
                kinetic =    3.222058
    potential(screened) =   -4.663715
       potential(ionic) =   -7.206130
*Note: V_local used for l= 2

** Using vlocal for PAOs with L= 2

SPLIT: Orbitals with angular momentum L= 2

SPLIT: Basis orbitals for state 3d

   izeta = 1
                 lambda =    1.000000
                     rc =    6.253707
                 energy =    0.017329
                kinetic =    1.197074
    potential(screened) =   -1.179745
       potential(ionic) =   -2.838380
atom: Total number of Sankey-type orbitals:  9

atm_pop: Valence configuration (for local Pseudopot. screening):
 2s( 2.00)                                                            
 2p( 2.00)                                                            
 3d( 0.00)                                                            
Vna: chval, zval:    4.00000   4.00000

Vna:  Cut-off radius for the neutral-atom potential:   6.740804
comcore: Pseudo-core radius Rcore=  1.682861

atom: _________________________________________________________________________

prinput: Basis input 

PAO.BasisType split     

%block ChemicalSpeciesLabel
    1    6 C                       # Species index, atomic number, species label
%endblock ChemicalSpeciesLabel

%block PAO.Basis                 # Define Basis set
# WARNING: This information might be incomplete!
C                     3   0.999            # Label, l-shells, ionic net charge
 n=2   0   1                         # n, l, Nzeta 
   6.099   
   1.000   
 n=2   1   1                         # n, l, Nzeta 
   6.741   
   1.000   
 n=3   2   1                         # n, l, Nzeta 
   6.254   
   1.000   
%endblock PAO.Basis

prinput: ----------------------------------------------------------------------

Dumping basis to NetCDF file C.ion.nc
coor:   Atomic-coordinates input format  =     Cartesian coordinates
coor:                                          (in Angstroms)

siesta: WARNING: XV file not found

siesta: Atomic coordinates (Bohr) and species
siesta:      2.68394   0.00000  34.55460  1        1
siesta:     10.73577   0.00000  34.56996  1        2
siesta:     18.78760   0.00000  34.56902  1        3
siesta:     26.83943   0.00000  34.50931  1        4
siesta:     34.89126   0.00000  34.58349  1        5
siesta:     42.94309   0.00000  34.61261  1        6
siesta:      6.70986   2.32436  34.57670  1        7
siesta:     14.76169   2.32436  34.61262  1        8
siesta:     22.81352   2.32436  34.58570  1        9
siesta:     30.86535   2.32436  34.54900  1       10
siesta:     38.91718   2.32436  34.56597  1       11
siesta:     46.96901   2.32436  34.62641  1       12
siesta:     10.73577   4.64873  34.52282  1       13
siesta:     18.78760   4.64873  34.58593  1       14
siesta:     26.83943   4.64873  34.54973  1       15
siesta:     34.89126   4.64873  34.54679  1       16
siesta:     42.94309   4.64873  34.61215  1       17
siesta:      6.70986   6.97309  34.58222  1       18
siesta:     14.76169   6.97309  34.55783  1       19
siesta:     22.81352   6.97309  34.55692  1       20
siesta:     30.86535   6.97309  34.59719  1       21
siesta:     38.91718   6.97309  34.55831  1       22
siesta:     46.96901   6.97309  34.55088  1       23
siesta:     10.73577   9.29745  34.54489  1       24
siesta:     18.78760   9.29745  34.55349  1       25
siesta:     26.83943   9.29745  34.57949  1       26
siesta:     34.89126   9.29745  34.49659  1       27
siesta:     42.94309   9.29745  34.56670  1       28
siesta:     50.99492   9.29745  34.50618  1       29
siesta:     14.76169  11.62182  34.51880  1       30
siesta:     22.81352  11.62182  34.52252  1       31
siesta:     30.86535  11.62182  34.51491  1       32
siesta:     38.91718  11.62182  34.62203  1       33
siesta:     46.96901  11.62182  34.55345  1       34
siesta:     10.73577  13.94618  34.45800  1       35
siesta:     18.78760  13.94618  34.57513  1       36
siesta:     26.83943  13.94618  34.54585  1       37
siesta:     34.89126  13.94618  34.58100  1       38
siesta:     42.94309  13.94618  34.58477  1       39
siesta:     50.99492  13.94618  34.51621  1       40
siesta:     14.76169  16.27054  34.57107  1       41
siesta:     22.81352  16.27054  34.60702  1       42
siesta:     30.86535  16.27054  34.56268  1       43
siesta:     38.91718  16.27054  34.62059  1       44
siesta:     46.96901  16.27054  34.54736  1       45
siesta:     55.02084  16.27054  34.52929  1       46
siesta:     18.78760  18.59491  34.47743  1       47
siesta:     26.83943  18.59491  34.52380  1       48
siesta:     34.89126  18.59491  34.55772  1       49
siesta:     42.94309  18.59491  34.59824  1       50
siesta:     50.99492  18.59491  34.56063  1       51
siesta:     14.76169  20.91927  34.57798  1       52
siesta:     22.81352  20.91927  34.59222  1       53
siesta:     30.86535  20.91927  34.52707  1       54
siesta:     38.91718  20.91927  34.54747  1       55
siesta:     46.96901  20.91927  34.48946  1       56
siesta:     55.02084  20.91927  34.54691  1       57
siesta:     18.78760  23.24363  34.56516  1       58
siesta:     26.83943  23.24363  34.49718  1       59
siesta:     34.89126  23.24363  34.54810  1       60
siesta:     42.94309  23.24363  34.53824  1       61
siesta:     50.99492  23.24363  34.60600  1       62
siesta:     59.04675  23.24363  34.57338  1       63
siesta:     22.81352  25.56799  34.56492  1       64
siesta:     30.86535  25.56799  34.55021  1       65
siesta:     38.91718  25.56799  34.58397  1       66
siesta:     46.96901  25.56799  34.52926  1       67
siesta:     55.02084  25.56799  34.57086  1       68
siesta:     18.78760  27.89236  34.57766  1       69
siesta:     26.83943  27.89236  34.58531  1       70
siesta:     34.89126  27.89236  34.59752  1       71
siesta:     42.94309  27.89236  34.55472  1       72
siesta:     50.99492  27.89236  34.57946  1       73
siesta:     59.04675  27.89236  34.59703  1       74
siesta:     22.81352  30.21672  34.57485  1       75
siesta:     30.86535  30.21672  34.53102  1       76
siesta:     38.91718  30.21672  34.54698  1       77
siesta:     46.96901  30.21672  34.57300  1       78
siesta:     55.02084  30.21672  34.52049  1       79
siesta:     63.07267  30.21672  34.52031  1       80
siesta:     26.83943  32.54108  34.53833  1       81
siesta:     34.89126  32.54108  34.56467  1       82
siesta:     42.94309  32.54108  34.49620  1       83
siesta:     50.99492  32.54108  34.58144  1       84
siesta:     59.04675  32.54108  34.55637  1       85
siesta:     22.81352  34.86545  34.52721  1       86
siesta:     30.86535  34.86545  34.56884  1       87
siesta:     38.91718  34.86545  34.58163  1       88
siesta:     46.96901  34.86545  34.57914  1       89
siesta:     55.02084  34.86545  34.57543  1       90
siesta:     63.07267  34.86545  34.53964  1       91
siesta:      5.36789   0.00000  34.52550  1       92
siesta:     13.41972   0.00000  34.52051  1       93
siesta:     21.47155   0.00000  34.61851  1       94
siesta:     29.52338   0.00000  34.56027  1       95
siesta:     37.57521   0.00000  34.56406  1       96
siesta:     45.62704   0.00000  34.62745  1       97
siesta:      9.39380   2.32436  34.50360  1       98
siesta:     17.44563   2.32436  34.54306  1       99
siesta:     25.49746   2.32436  34.56192  1      100
siesta:     33.54929   2.32436  34.51259  1      101
siesta:     41.60112   2.32436  34.49090  1      102
siesta:      5.36789   4.64873  34.54663  1      103
siesta:     13.41972   4.64873  34.47081  1      104
siesta:     21.47155   4.64873  34.61077  1      105
siesta:     29.52338   4.64873  34.57030  1      106
siesta:     37.57521   4.64873  34.51674  1      107
siesta:     45.62704   4.64873  34.58518  1      108
siesta:      9.39380   6.97309  34.56524  1      109
siesta:     17.44563   6.97309  34.51791  1      110
siesta:     25.49746   6.97309  34.52545  1      111
siesta:     33.54929   6.97309  34.60676  1      112
siesta:     41.60112   6.97309  34.52075  1      113
siesta:     49.65295   6.97309  34.57472  1      114
siesta:     13.41972   9.29745  34.61631  1      115
siesta:     21.47155   9.29745  34.61202  1      116
siesta:     29.52338   9.29745  34.59107  1      117
siesta:     37.57521   9.29745  34.56996  1      118
siesta:     45.62704   9.29745  34.59309  1      119
siesta:      9.39380  11.62182  34.61766  1      120
siesta:     17.44563  11.62182  34.49493  1      121
siesta:     25.49746  11.62182  34.56804  1      122
siesta:     33.54929  11.62182  34.56168  1      123
siesta:     41.60112  11.62182  34.53150  1      124
siesta:     49.65295  11.62182  34.52442  1      125
siesta:     13.41972  13.94618  34.57238  1      126
siesta:     21.47155  13.94618  34.59753  1      127
siesta:     29.52338  13.94618  34.57970  1      128
siesta:     37.57521  13.94618  34.60022  1      129
siesta:     45.62704  13.94618  34.56345  1      130
siesta:     53.67887  13.94618  34.51645  1      131
siesta:     17.44563  16.27054  34.53489  1      132
siesta:     25.49746  16.27054  34.56492  1      133
siesta:     33.54929  16.27054  34.49844  1      134
siesta:     41.60112  16.27054  34.55983  1      135
siesta:     49.65295  16.27054  34.51866  1      136
siesta:     13.41972  18.59491  34.52203  1      137
siesta:     21.47155  18.59491  34.60676  1      138
siesta:     29.52338  18.59491  34.54002  1      139
siesta:     37.57521  18.59491  34.56348  1      140
siesta:     45.62704  18.59491  34.58159  1      141
siesta:     53.67887  18.59491  34.59112  1      142
siesta:     17.44563  20.91927  34.48751  1      143
siesta:     25.49746  20.91927  34.52276  1      144
siesta:     33.54929  20.91927  34.51483  1      145
siesta:     41.60112  20.91927  34.60029  1      146
siesta:     49.65295  20.91927  34.55064  1      147
siesta:     57.70478  20.91927  34.61251  1      148
siesta:     21.47155  23.24363  34.55495  1      149
siesta:     29.52338  23.24363  34.54766  1      150
siesta:     37.57521  23.24363  34.55981  1      151
siesta:     45.62704  23.24363  34.55107  1      152
siesta:     53.67887  23.24363  34.53892  1      153
siesta:     17.44563  25.56799  34.53505  1      154
siesta:     25.49746  25.56799  34.58890  1      155
siesta:     33.54929  25.56799  34.54760  1      156
siesta:     41.60112  25.56799  34.52709  1      157
siesta:     49.65295  25.56799  34.53798  1      158
siesta:     57.70478  25.56799  34.61709  1      159
siesta:     21.47155  27.89236  34.54103  1      160
siesta:     29.52338  27.89236  34.55208  1      161
siesta:     37.57521  27.89236  34.56712  1      162
siesta:     45.62704  27.89236  34.47681  1      163
siesta:     53.67887  27.89236  34.53923  1      164
siesta:     61.73070  27.89236  34.54915  1      165
siesta:     25.49746  30.21672  34.58228  1      166
siesta:     33.54929  30.21672  34.62448  1      167
siesta:     41.60112  30.21672  34.49185  1      168
siesta:     49.65295  30.21672  34.52716  1      169
siesta:     57.70478  30.21672  34.61992  1      170
siesta:     21.47155  32.54108  34.49233  1      171
siesta:     29.52338  32.54108  34.47859  1      172
siesta:     37.57521  32.54108  34.58051  1      173
siesta:     45.62704  32.54108  34.55917  1      174
siesta:     53.67887  32.54108  34.59818  1      175
siesta:     61.73070  32.54108  34.59499  1      176
siesta:     25.49746  34.86545  34.52765  1      177
siesta:     33.54929  34.86545  34.55746  1      178
siesta:     41.60112  34.86545  34.55664  1      179
siesta:     49.65295  34.86545  34.54384  1      180
siesta:     57.70478  34.86545  34.54621  1      181
siesta:     65.75661  34.86545  34.51818  1      182
siesta:      6.91632   1.60917  41.01414  1      183
siesta:     14.92390   0.76627  41.03566  1      184
siesta:     22.93149  -0.07663  41.03034  1      185
siesta:     30.93908  -0.91953  40.99734  1      186
siesta:     38.94667  -1.76243  41.04757  1      187
siesta:      3.15585   4.34222  41.07281  1      188
siesta:     11.16343   3.49932  41.10672  1      189
siesta:     19.17102   2.65642  41.04716  1      190
siesta:     27.17861   1.81351  41.06806  1      191
siesta:     35.18620   0.97061  41.02450  1      192
siesta:     43.19379   0.12771  41.07097  1      193
siesta:      7.40296   6.23236  40.99286  1      194
siesta:     15.41055   5.38946  41.05797  1      195
siesta:     23.41814   4.54656  41.10273  1      196
siesta:     31.42573   3.70366  41.01832  1      197
siesta:     39.43332   2.86075  41.07587  1      198
siesta:     11.65008   8.12250  41.05519  1      199
siesta:     19.65767   7.27960  41.10059  1      200
siesta:     27.66526   6.43670  40.98739  1      201
siesta:     35.67285   5.59380  41.01688  1      202
siesta:     43.68044   4.75090  41.04065  1      203
siesta:      7.88961  10.85554  41.07469  1      204
siesta:     15.89720  10.01264  41.01279  1      205
siesta:     23.90479   9.16974  41.04344  1      206
siesta:     31.91238   8.32684  41.04105  1      207
siesta:     39.91997   7.48394  41.03521  1      208
siesta:     47.92756   6.64104  41.09121  1      209
siesta:     12.13673  12.74568  41.00084  1      210
siesta:     20.14432  11.90278  41.04850  1      211
siesta:     28.15191  11.05988  41.09708  1      212
siesta:     36.15950  10.21698  40.97834  1      213
siesta:     44.16709   9.37408  41.01943  1      214
siesta:     16.38385  14.63583  41.05487  1      215
siesta:     24.39144  13.79292  41.00773  1      216
siesta:     32.39903  12.95002  40.98309  1      217
siesta:     40.40662  12.10712  41.00153  1      218
siesta:     48.41421  11.26422  40.99826  1      219
siesta:     12.62338  17.36887  41.03548  1      220
siesta:     20.63097  16.52597  41.03951  1      221
siesta:     28.63856  15.68307  40.99320  1      222
siesta:     36.64615  14.84016  41.03663  1      223
siesta:     44.65374  13.99726  41.04511  1      224
siesta:     52.66133  13.15436  41.04423  1      225
siesta:     16.87050  19.25901  41.05545  1      226
siesta:     24.87809  18.41611  41.02966  1      227
siesta:     32.88568  17.57321  41.06866  1      228
siesta:     40.89327  16.73031  40.98638  1      229
siesta:     48.90086  15.88741  41.00213  1      230
siesta:     21.11762  21.14915  41.03010  1      231
siesta:     29.12521  20.30625  41.11042  1      232
siesta:     37.13280  19.46335  41.03314  1      233
siesta:     45.14039  18.62045  41.00234  1      234
siesta:     53.14798  17.77755  41.04996  1      235
siesta:     17.35715  23.88219  41.03864  1      236
siesta:     25.36474  23.03929  41.05751  1      237
siesta:     33.37233  22.19639  41.06053  1      238
siesta:     41.37992  21.35349  41.07323  1      239
siesta:     49.38751  20.51059  40.98412  1      240
siesta:     57.39510  19.66769  40.99133  1      241
siesta:     21.60427  25.77233  40.99737  1      242
siesta:     29.61186  24.92943  40.96781  1      243
siesta:     37.61945  24.08653  41.08634  1      244
siesta:     45.62704  23.24363  41.04418  1      245
siesta:     53.63463  22.40073  41.00361  1      246
siesta:     25.85139  27.66248  40.97823  1      247
siesta:     33.85898  26.81957  41.00721  1      248
siesta:     41.86657  25.97667  40.99419  1      249
siesta:     49.87416  25.13377  41.09355  1      250
siesta:     57.88175  24.29087  41.06549  1      251
siesta:     22.09092  30.39552  41.01003  1      252
siesta:     30.09851  29.55262  41.05271  1      253
siesta:     38.10610  28.70972  40.99777  1      254
siesta:     46.11369  27.86682  41.01819  1      255
siesta:     54.12128  27.02391  41.00281  1      256
siesta:     62.12886  26.18101  41.04447  1      257
siesta:     26.33804  32.28566  41.10611  1      258
siesta:     34.34563  31.44276  41.04397  1      259
siesta:     42.35322  30.59986  41.07853  1      260
siesta:     50.36081  29.75696  41.06047  1      261
siesta:     58.36839  28.91406  41.02596  1      262
siesta:     30.58516  34.17580  40.97967  1      263
siesta:     38.59275  33.33290  41.05053  1      264
siesta:     46.60034  32.49000  41.04458  1      265
siesta:     54.60792  31.64710  40.99324  1      266
siesta:     62.61551  30.80420  41.10913  1      267
siesta:     26.82469  36.90884  41.00521  1      268
siesta:     34.83228  36.06594  41.03229  1      269
siesta:     42.83987  35.22304  41.05027  1      270
siesta:     50.84745  34.38014  41.01946  1      271
siesta:     58.85504  33.53724  41.00452  1      272
siesta:     66.86263  32.69434  41.01368  1      273
siesta:      1.57792   2.17111  41.03886  1      274
siesta:      9.58551   1.32821  41.06454  1      275
siesta:     17.59310   0.48531  41.01926  1      276
siesta:     25.60069  -0.35759  41.01510  1      277
siesta:     33.60828  -1.20050  41.03973  1      278
siesta:     41.61587  -2.04340  41.03045  1      279
siesta:      5.82504   4.06125  40.97589  1      280
siesta:     13.83263   3.21835  40.99426  1      281
siesta:     21.84022   2.37545  41.06327  1      282
siesta:     29.84781   1.53255  40.99720  1      283
siesta:     37.85540   0.68965  41.09921  1      284
siesta:     10.07216   5.95139  41.04027  1      285
siesta:     18.07975   5.10849  41.00364  1      286
siesta:     26.08734   4.26559  41.11731  1      287
siesta:     34.09493   3.42269  41.04907  1      288
siesta:     42.10252   2.57979  41.03329  1      289
siesta:      6.31169   8.68443  41.09095  1      290
siesta:     14.31928   7.84153  41.08001  1      291
siesta:     22.32687   6.99863  41.09061  1      292
siesta:     30.33446   6.15573  41.05796  1      293
siesta:     38.34205   5.31283  40.97333  1      294
siesta:     46.34964   4.46993  41.03348  1      295
siesta:     10.55881  10.57458  41.07943  1      296
siesta:     18.56640   9.73167  41.01755  1      297
siesta:     26.57399   8.88877  41.02679  1      298
siesta:     34.58158   8.04587  41.03784  1      299
siesta:     42.58917   7.20297  40.99553  1      300
siesta:     14.80593  12.46472  41.01121  1      301
siesta:     22.81352  11.62182  41.08230  1      302
siesta:     30.82111  10.77891  41.01208  1      303
siesta:     38.82870   9.93601  41.00995  1      304
siesta:     46.83629   9.09311  41.04053  1      305
siesta:     11.04546  15.19776  41.00673  1      306
siesta:     19.05305  14.35486  40.98903  1      307
siesta:     27.06064  13.51196  41.02932  1      308
siesta:     35.06823  12.66906  41.08469  1      309
siesta:     43.07582  11.82616  41.04790  1      310
siesta:     51.08341  10.98325  41.11184  1      311
siesta:     15.29258  17.08790  41.07950  1      312
siesta:     23.30017  16.24500  41.04862  1      313
siesta:     31.30776  15.40210  41.02729  1      314
siesta:     39.31535  14.55920  41.08342  1      315
siesta:     47.32294  13.71630  40.97096  1      316
siesta:     19.53970  18.97804  41.03235  1      317
siesta:     27.54729  18.13514  41.03965  1      318
siesta:     35.55488  17.29224  41.10983  1      319
siesta:     43.56247  16.44934  41.08057  1      320
siesta:     51.57005  15.60644  41.08072  1      321
siesta:     15.77923  21.71108  41.02926  1      322
siesta:     23.78682  20.86818  41.04061  1      323
siesta:     31.79441  20.02528  41.03530  1      324
siesta:     39.80200  19.18238  41.07620  1      325
siesta:     47.80958  18.33948  40.99863  1      326
siesta:     55.81717  17.49658  41.08370  1      327
siesta:     20.02635  23.60123  41.02947  1      328
siesta:     28.03394  22.75832  41.04785  1      329
siesta:     36.04153  21.91542  41.06842  1      330
siesta:     44.04911  21.07252  40.97808  1      331
siesta:     52.05670  20.22962  41.05700  1      332
siesta:     24.27347  25.49137  41.05375  1      333
siesta:     32.28106  24.64847  41.03601  1      334
siesta:     40.28864  23.80557  41.00409  1      335
siesta:     48.29623  22.96266  40.97976  1      336
siesta:     56.30382  22.11976  41.01012  1      337
siesta:     20.51300  28.22441  41.00809  1      338
siesta:     28.52058  27.38151  41.01403  1      339
siesta:     36.52817  26.53861  41.01603  1      340
siesta:     44.53576  25.69571  41.08561  1      341
siesta:     52.54335  24.85281  41.03639  1      342
siesta:     60.55094  24.00990  41.09086  1      343
siesta:     24.76011  30.11455  41.00603  1      344
siesta:     32.76770  29.27165  41.08394  1      345
siesta:     40.77529  28.42875  40.98405  1      346
siesta:     48.78288  27.58585  41.13607  1      347
siesta:     56.79047  26.74295  40.96204  1      348
siesta:     29.00723  32.00469  41.01643  1      349
siesta:     37.01482  31.16179  41.03094  1      350
siesta:     45.02241  30.31889  41.03192  1      351
siesta:     53.03000  29.47599  41.01568  1      352
siesta:     61.03759  28.63309  41.01666  1      353
siesta:     25.24676  34.73773  41.05907  1      354
siesta:     33.25435  33.89483  40.99891  1      355
siesta:     41.26194  33.05193  41.03961  1      356
siesta:     49.26953  32.20903  41.08277  1      357
siesta:     57.27712  31.36613  41.06512  1      358
siesta:     65.28471  30.52323  40.99039  1      359
siesta:     29.49388  36.62788  41.05771  1      360
siesta:     37.50147  35.78498  41.07078  1      361
siesta:     45.50906  34.94207  41.09980  1      362
siesta:     53.51665  34.09917  40.96021  1      363
siesta:     61.52424  33.25627  41.03212  1      364

siesta: System type = slab      

initatomlists: Number of atoms, orbitals, and projectors:    364  3276  2912

siesta: ******************** Simulation parameters ****************************
siesta:
siesta: The following are some of the parameters of the simulation.
siesta: A complete list of the parameters used, including default values,
siesta: can be found in file out.fdf
siesta:
redata: Spin configuration                          = none
redata: Number of spin components                   = 1
redata: Time-Reversal Symmetry                      = T
redata: Spin spiral                                 = F
redata: Long output                                 =   F
redata: Number of Atomic Species                    =        1
redata: Charge density info will appear in .RHO file
redata: Write Mulliken Pop.                         = NO
redata: Matel table size (NRTAB)                    =     1024
redata: Mesh Cutoff                                 =   300.0000 Ry
redata: Net charge of the system                    =     0.0000 |e|
redata: Min. number of SCF Iter                     =        3
redata: Max. number of SCF Iter                     =      300
redata: SCF convergence failure will abort job
redata: SCF mix quantity                            = Hamiltonian
redata: Mix DM or H after convergence               =   F
redata: Recompute H after scf cycle                 =   F
redata: Mix DM in first SCF step                    =   T
redata: Write Pulay info on disk                    =   F
redata: New DM Occupancy tolerance                  = 0.000000000001
redata: No kicks to SCF
redata: DM Mixing Weight for Kicks                  =     0.5000
redata: Require Harris convergence for SCF          =   F
redata: Harris energy tolerance for SCF             =     0.000100 eV
redata: Require DM convergence for SCF              =   T
redata: DM tolerance for SCF                        =     0.000100
redata: Require EDM convergence for SCF             =   F
redata: EDM tolerance for SCF                       =     0.001000 eV
redata: Require H convergence for SCF               =   T
redata: Hamiltonian tolerance for SCF               =     0.001000 eV
redata: Require (free) Energy convergence for SCF   =   F
redata: (free) Energy tolerance for SCF             =     0.000100 eV
redata: Using DFT-D3 dispersion                     =   T
redata: Using Saved Data (generic)                  =   F
redata: Use continuation files for DM               =   T
redata: Neglect nonoverlap interactions             =   F
redata: Method of Calculation                       = Diagonalization
redata: Electronic Temperature                      =   299.9863 K
redata: Fix the spin of the system                  =   F
redata: Max. number of TDED Iter                    =        1
redata: Number of TDED substeps                     =        3
redata: Dynamics option                             = CG coord. optimization
redata: Variable cell                               =   F
redata: Use continuation files for CG               =   F
redata: Max atomic displ per move                   =     0.2646 Ang
redata: Maximum number of optimization moves        =      200
redata: Force tolerance                             =     0.0100 eV/Ang
mix.SCF: Pulay mixing                            = Pulay
mix.SCF:    Variant                              = stable
mix.SCF:    History steps                        = 12
mix.SCF:    Linear mixing weight                 =     0.100000
mix.SCF:    Mixing weight                        =     0.100000
mix.SCF:    SVD condition                        = 0.1000E-07
redata: Save all siesta data in one NC              =   F
redata: ***********************************************************************

%block SCF.Mixers
  Pulay
%endblock SCF.Mixers

%block SCF.Mixer.Pulay
  # Mixing method
  method pulay
  variant stable

  # Mixing options
  weight 0.1000
  weight.linear 0.1000
  history 12
%endblock SCF.Mixer.Pulay
 
DFT-D3: loading default parameters for functional PBE.
DM_history_depth set to one: no extrapolation allowed by default for geometry relaxation
Size of DM history Fstack: 1
Total number of electrons:  1456.000000
Total ionic charge:  1456.000000

* ProcessorY, Blocksize:    8  51


* Orbital distribution balance (max,min):    63    51

 Kpoints in:            1 . Kpoints trimmed:            1

siesta: k-grid: Number of k-points = 1
siesta: k-points from Monkhorst-Pack grid
siesta: k-cutoff (effective) =    11.733 Ang
siesta: k-point supercell and displacements
siesta: k-grid:     1     0     0      0.000
siesta: k-grid:     0     1     0      0.000
siesta: k-grid:     0     0     1      0.000
 
diag: Algorithm                                     = D&C
diag: Parallel over k                               =   F
diag: Use parallel 2D distribution                  =   T
diag: Parallel block-size                           = 51
diag: Parallel distribution                         =     8 x     8
diag: Used triangular part                          = Lower
diag: Absolute tolerance                            =  0.100E-15
diag: Orthogonalization factor                      =  0.100E-05
diag: Memory factor                                 =  1.0000
 
siesta: Constraint v=[  0.00000,  0.00000,  1.00000] (364): center-dir
  [ 1 -- 364 ]
 
 
ts: **************************************************************
ts: Save H and S matrices                           =    F
ts: Save DM and EDM matrices                        =    F
ts: Only save the overlap matrix S                  =    F
ts: **************************************************************
 
************************ Begin: TS CHECKS AND WARNINGS ************************
************************ End: TS CHECKS AND WARNINGS **************************


                     ====================================
                        Begin CG opt. move =      0
                     ====================================

outcell: Unit cell vectors (Ang):
       23.434647   -1.230000    0.000000
       12.782535   19.680000    0.000000
        0.000000    0.000000   40.000000

outcell: Cell vector modules (Ang)   :   23.466904   23.466904   40.000000
outcell: Cell angles (23,13,12) (deg):     90.0000     90.0000     60.0000
outcell: Cell volume (Ang**3)        :  19076.6552
<dSpData1D:S at geom step 0
  <sparsity:sparsity for geom step 0
    nrows_g=3276 nrows=63 sparsity=.0056 nnzs=60247, refcount: 7>
  <dData1D:(new from dSpData1D) n=60247, refcount: 1>
refcount: 1>
new_DM -- step:     1
Initializing Density Matrix...
 
Attempting to read DM from file... Failed...
DM filled with atomic data:
<dSpData2D:DM initialized from atoms
  <sparsity:sparsity for geom step 0
    nrows_g=3276 nrows=63 sparsity=.0056 nnzs=60247, refcount: 8>
  <dData2D:DM n=60247 m=1, refcount: 1>
refcount: 1>
No. of atoms with KB's overlaping orbs in proc 0. Max # of overlaps:     123     231

InitMesh: MESH = 216 x 216 x 432 = 20155392
InitMesh: Mesh cutoff (required, used) =   300.000   312.203 Ry
New grid distribution [1]: sub = 2
New grid distribution [2]: sub = 2
New grid distribution [3]: sub = 2
Setting up quadratic distribution...

stepf: Fermi-Dirac step function

siesta: Program's energy decomposition (eV):
siesta: Ebs     =    -21264.886636
siesta: Eions   =    102706.861614
siesta: Ena     =     22680.351021
siesta: Ekin    =     40105.641107
siesta: Enl     =     -1804.230140
siesta: Eso     =         0.000000
siesta: Edftu   =         0.000000
siesta: DEna    =      3082.287944
siesta: DUscf   =       197.395022
siesta: DUext   =         0.000000
siesta: Ex      =    -19186.563130
siesta: Ec      =     -1850.321475
siesta: Exc     =    -21036.884605
siesta: EbV     =         0.000000
siesta: eta*DQ  =         0.000000
siesta: Emadel  =         0.000000
siesta: Emeta   =         0.000000
siesta: Emolmec =         0.000000
siesta: Ekinion =         0.000000
siesta: Eharris =    -60922.114198
siesta: Etot    =    -59482.301265
siesta: FreeEng =    -59482.301265

        iscf     Eharris(eV)        E_KS(eV)     FreeEng(eV)     dDmax    Ef(eV) dHmax(eV)
   scf:    1   -60922.114198   -59482.301265   -59482.301265  1.204117 -1.363486  4.743798
timer: Routine,Calls,Time,% = IterSCF        1       3.009  39.01
   scf:    2   -59498.388580   -59490.450492   -59490.450492  0.009036 -1.779528  3.994034
   scf:    3   -59528.045823   -59511.825001   -59511.825001  0.048465 -3.735132  0.296737
   scf:    4   -59512.598249   -59512.289711   -59512.289711  0.008855 -4.037258  0.170286
   scf:    5   -59512.209722   -59512.288912   -59512.288912  0.002808 -3.883954  0.180038
   scf:    6   -59512.341959   -59512.325372   -59512.325372  0.001668 -3.965427  0.020056
   scf:    7   -59512.318684   -59512.323190   -59512.323190  0.000926 -3.943158  0.056359
   scf:    8   -59512.329221   -59512.326908   -59512.326908  0.000367 -3.960400  0.017438
   scf:    9   -59512.327131   -59512.327109   -59512.327109  0.000303 -3.973118  0.006675
   scf:   10   -59512.327197   -59512.327174   -59512.327174  0.000150 -3.967701  0.002077
   scf:   11   -59512.327194   -59512.327186   -59512.327186  0.000046 -3.969060  0.000263

SCF Convergence by DM+H criterion
max |DM_out - DM_in|         :     0.0000458171
max |H_out - H_in|      (eV) :     0.0002625031
SCF cycle converged after 11 iterations

Using DM_out to compute the final energy and forces
No. of atoms with KB's overlaping orbs in proc 0. Max # of overlaps:     123     231
System symmetry is of type slab but no DFTD3.Periodic list was found. Attempting to guess symmetry for D3.
Could not guess the right amount of periodicity directions for D3.
Enabling periodicity on all directions.

siesta: E_KS(eV) =           -59548.5282

siesta: E_KS - E_eggbox =    -59548.5282

siesta: Atomic forces (eV/Ang):
----------------------------------------
   Tot   -0.000977   -0.001198   -0.002009
----------------------------------------
   Max    0.938817
   Res    0.176835    sqrt( Sum f_i^2 / 3N )
----------------------------------------
   Max    0.938817    constrained

Stress tensor Voigt[x,y,z,yz,xz,xy] (kbar):      -25.63      -25.65       -4.65       -0.00        0.00        0.01
(Free)E + p*V (eV/cell)   -59326.5199
Target enthalpy (eV/cell)   -59548.5282

                     ====================================
                        Begin CG opt. move =      1
                     ====================================

outcell: Unit cell vectors (Ang):
       23.434647   -1.230000    0.000000
       12.782535   19.680000    0.000000
        0.000000    0.000000   40.000000

outcell: Cell vector modules (Ang)   :   23.466904   23.466904   40.000000
outcell: Cell angles (23,13,12) (deg):     90.0000     90.0000     60.0000
outcell: Cell volume (Ang**3)        :  19076.6552
<dSpData1D:S at geom step 1
  <sparsity:sparsity for geom step 1
    nrows_g=3276 nrows=63 sparsity=.0056 nnzs=60170, refcount: 7>
  <dData1D:(new from dSpData1D) n=60170, refcount: 1>
refcount: 1>
new_DM -- step:     2
Re-using DM from previous geometries...
Number of DMs in history: 1
 DM extrapolation coefficients: 
1   1.00000
New DM after history re-use:
<dSpData2D:SpM extrapolated using coords
  <sparsity:sparsity for geom step 1
    nrows_g=3276 nrows=63 sparsity=.0056 nnzs=60170, refcount: 9>
  <dData2D:(temp array for extrapolation) n=60170 m=1, refcount: 1>
refcount: 1>
No. of atoms with KB's overlaping orbs in proc 0. Max # of overlaps:     121     230

InitMesh: MESH = 216 x 216 x 432 = 20155392
InitMesh: Mesh cutoff (required, used) =   300.000   312.203 Ry
New grid distribution [1]: sub = 2
New grid distribution [2]: sub = 2
New grid distribution [3]: sub = 2
Setting up quadratic distribution...

        iscf     Eharris(eV)        E_KS(eV)     FreeEng(eV)     dDmax    Ef(eV) dHmax(eV)
   scf:    1   -59549.654809   -59549.200017   -59549.200017  0.025872 -3.985715  0.526899
   scf:    2   -59545.066267   -59547.923358   -59547.923358  0.025165 -4.021463  2.245116
   scf:    3   -59549.439252   -59549.251092   -59549.251092  0.020640 -3.982753  0.080058
   scf:    4   -59549.254648   -59549.253210   -59549.253210  0.001176 -3.982465  0.015776
   scf:    5   -59549.254485   -59549.253889   -59549.253889  0.000324 -3.982284  0.009306
   scf:    6   -59549.254466   -59549.254204   -59549.254204  0.000326 -3.982140  0.003848
   scf:    7   -59549.254249   -59549.254229   -59549.254229  0.000074 -3.982117  0.001594
   scf:    8   -59549.254239   -59549.254235   -59549.254235  0.000035 -3.982105  0.000447

SCF Convergence by DM+H criterion
max |DM_out - DM_in|         :     0.0000348563
max |H_out - H_in|      (eV) :     0.0004471072
SCF cycle converged after 8 iterations

Using DM_out to compute the final energy and forces
No. of atoms with KB's overlaping orbs in proc 0. Max # of overlaps:     121     230
System symmetry is of type slab but no DFTD3.Periodic list was found. Attempting to guess symmetry for D3.
Could not guess the right amount of periodicity directions for D3.
Enabling periodicity on all directions.

siesta: E_KS(eV) =           -59549.2445

siesta: Atomic forces (eV/Ang):
----------------------------------------
   Tot   -0.001156    0.004186    0.000902
----------------------------------------
   Max    0.304570
   Res    0.066155    sqrt( Sum f_i^2 / 3N )
----------------------------------------
   Max    0.304570    constrained

Stress tensor Voigt[x,y,z,yz,xz,xy] (kbar):      -25.74      -25.74       -4.77       -0.00        0.00       -0.02
(Free)E + p*V (eV/cell)   -59326.0210
Target enthalpy (eV/cell)   -59549.2445

                     ====================================
                        Begin CG opt. move =      2
                     ====================================

outcell: Unit cell vectors (Ang):
       23.434647   -1.230000    0.000000
       12.782535   19.680000    0.000000
        0.000000    0.000000   40.000000

outcell: Cell vector modules (Ang)   :   23.466904   23.466904   40.000000
outcell: Cell angles (23,13,12) (deg):     90.0000     90.0000     60.0000
outcell: Cell volume (Ang**3)        :  19076.6552
<dSpData1D:S at geom step 2
  <sparsity:sparsity for geom step 2
    nrows_g=3276 nrows=63 sparsity=.0056 nnzs=60167, refcount: 7>
  <dData1D:(new from dSpData1D) n=60167, refcount: 1>
refcount: 1>
new_DM -- step:     3
Re-using DM from previous geometries...
Number of DMs in history: 1
 DM extrapolation coefficients: 
1   1.00000
New DM after history re-use:
<dSpData2D:SpM extrapolated using coords
  <sparsity:sparsity for geom step 2
    nrows_g=3276 nrows=63 sparsity=.0056 nnzs=60167, refcount: 9>
  <dData2D:(temp array for extrapolation) n=60167 m=1, refcount: 1>
refcount: 1>
No. of atoms with KB's overlaping orbs in proc 0. Max # of overlaps:     121     230

InitMesh: MESH = 216 x 216 x 432 = 20155392
InitMesh: Mesh cutoff (required, used) =   300.000   312.203 Ry
New grid distribution [1]: sub = 2
New grid distribution [2]: sub = 2
New grid distribution [3]: sub = 2
Setting up quadratic distribution...

        iscf     Eharris(eV)        E_KS(eV)     FreeEng(eV)     dDmax    Ef(eV) dHmax(eV)
   scf:    1   -59549.247420   -59549.247613   -59549.247613  0.001760 -3.980219  0.004415
   scf:    2   -59549.247330   -59549.247541   -59549.247541  0.000315 -3.980226  0.017646
   scf:    3   -59549.247637   -59549.247634   -59549.247634  0.000247 -3.980220  0.001565
   scf:    4   -59549.247646   -59549.247641   -59549.247641  0.000034 -3.980221  0.000837

SCF Convergence by DM+H criterion
max |DM_out - DM_in|         :     0.0000342523
max |H_out - H_in|      (eV) :     0.0008373779
SCF cycle converged after 4 iterations

Using DM_out to compute the final energy and forces
No. of atoms with KB's overlaping orbs in proc 0. Max # of overlaps:     121     230
System symmetry is of type slab but no DFTD3.Periodic list was found. Attempting to guess symmetry for D3.
Could not guess the right amount of periodicity directions for D3.
Enabling periodicity on all directions.

siesta: E_KS(eV) =           -59549.2482

siesta: Atomic forces (eV/Ang):
----------------------------------------
   Tot   -0.001035    0.003813    0.001301
----------------------------------------
   Max    0.270552
   Res    0.060679    sqrt( Sum f_i^2 / 3N )
----------------------------------------
   Max    0.270552    constrained

Stress tensor Voigt[x,y,z,yz,xz,xy] (kbar):      -25.74      -25.73       -4.77       -0.00       -0.00       -0.02
(Free)E + p*V (eV/cell)   -59326.0368
Target enthalpy (eV/cell)   -59549.2482

cgvc: Finished line minimization    1.  Mean atomic displacement =    0.0245

                     ====================================
                        Begin CG opt. move =      3
                     ====================================

outcell: Unit cell vectors (Ang):
       23.434647   -1.230000    0.000000
       12.782535   19.680000    0.000000
        0.000000    0.000000   40.000000

outcell: Cell vector modules (Ang)   :   23.466904   23.466904   40.000000
outcell: Cell angles (23,13,12) (deg):     90.0000     90.0000     60.0000
outcell: Cell volume (Ang**3)        :  19076.6552
<dSpData1D:S at geom step 3
  <sparsity:sparsity for geom step 3
    nrows_g=3276 nrows=63 sparsity=.0057 nnzs=60684, refcount: 7>
  <dData1D:(new from dSpData1D) n=60684, refcount: 1>
refcount: 1>
new_DM -- step:     4
Re-using DM from previous geometries...
Number of DMs in history: 1
 DM extrapolation coefficients: 
1   1.00000
New DM after history re-use:
<dSpData2D:SpM extrapolated using coords
  <sparsity:sparsity for geom step 3
    nrows_g=3276 nrows=63 sparsity=.0057 nnzs=60684, refcount: 9>
  <dData2D:(temp array for extrapolation) n=60684 m=1, refcount: 1>
refcount: 1>
No. of atoms with KB's overlaping orbs in proc 0. Max # of overlaps:     122     233

InitMesh: MESH = 216 x 216 x 432 = 20155392
InitMesh: Mesh cutoff (required, used) =   300.000   312.203 Ry
New grid distribution [1]: sub = 2
New grid distribution [2]: sub = 2
New grid distribution [3]: sub = 2
Setting up quadratic distribution...

        iscf     Eharris(eV)        E_KS(eV)     FreeEng(eV)     dDmax    Ef(eV) dHmax(eV)
   scf:    1   -59547.837579   -59548.142468   -59548.142468  0.021893 -3.882691  0.485755
   scf:    2   -59546.494815   -59547.703825   -59547.703825  0.041050 -3.887560  1.484615
   scf:    3   -59548.284986   -59548.238843   -59548.238843  0.032051 -3.881660  0.099436
   scf:    4   -59548.264283   -59548.254890   -59548.254890  0.003821 -3.881798  0.037230
   scf:    5   -59548.258683   -59548.257045   -59548.257045  0.000800 -3.881912  0.014171
   scf:    6   -59548.258138   -59548.257647   -59548.257647  0.000322 -3.881932  0.005581
   scf:    7   -59548.257792   -59548.257726   -59548.257726  0.000160 -3.881922  0.002772
   scf:    8   -59548.257757   -59548.257744   -59548.257744  0.000106 -3.881907  0.000979
   scf:    9   -59548.257749   -59548.257747   -59548.257747  0.000049 -3.881895  0.000457

SCF Convergence by DM+H criterion
max |DM_out - DM_in|         :     0.0000491539
max |H_out - H_in|      (eV) :     0.0004565324
SCF cycle converged after 9 iterations

Using DM_out to compute the final energy and forces
No. of atoms with KB's overlaping orbs in proc 0. Max # of overlaps:     122     233
System symmetry is of type slab but no DFTD3.Periodic list was found. Attempting to guess symmetry for D3.
Could not guess the right amount of periodicity directions for D3.
Enabling periodicity on all directions.

siesta: E_KS(eV) =           -59548.2335

siesta: Atomic forces (eV/Ang):
----------------------------------------
   Tot    0.003902   -0.009879   -0.001731
----------------------------------------
   Max    2.873816
   Res    0.473703    sqrt( Sum f_i^2 / 3N )
----------------------------------------
   Max    2.873844    constrained

Stress tensor Voigt[x,y,z,yz,xz,xy] (kbar):      -25.87      -26.10       -4.75       -0.01        0.00        0.30
(Free)E + p*V (eV/cell)   -59323.1254
Target enthalpy (eV/cell)   -59548.2335

                     ====================================
                        Begin CG opt. move =      4
                     ====================================

outcell: Unit cell vectors (Ang):
       23.434647   -1.230000    0.000000
       12.782535   19.680000    0.000000
        0.000000    0.000000   40.000000

outcell: Cell vector modules (Ang)   :   23.466904   23.466904   40.000000
outcell: Cell angles (23,13,12) (deg):     90.0000     90.0000     60.0000
outcell: Cell volume (Ang**3)        :  19076.6552
<dSpData1D:S at geom step 4
  <sparsity:sparsity for geom step 4
    nrows_g=3276 nrows=63 sparsity=.0056 nnzs=60167, refcount: 7>
  <dData1D:(new from dSpData1D) n=60167, refcount: 1>
refcount: 1>
new_DM -- step:     5
Re-using DM from previous geometries...
Number of DMs in history: 1
 DM extrapolation coefficients: 
1   1.00000
New DM after history re-use:
<dSpData2D:SpM extrapolated using coords
  <sparsity:sparsity for geom step 4
    nrows_g=3276 nrows=63 sparsity=.0056 nnzs=60167, refcount: 9>
  <dData2D:(temp array for extrapolation) n=60167 m=1, refcount: 1>
refcount: 1>
No. of atoms with KB's overlaping orbs in proc 0. Max # of overlaps:     121     230

InitMesh: MESH = 216 x 216 x 432 = 20155392
InitMesh: Mesh cutoff (required, used) =   300.000   312.203 Ry
New grid distribution [1]: sub = 2
New grid distribution [2]: sub = 2
New grid distribution [3]: sub = 2
Setting up quadratic distribution...

        iscf     Eharris(eV)        E_KS(eV)     FreeEng(eV)     dDmax    Ef(eV) dHmax(eV)
   scf:    1   -59549.363921   -59549.186841   -59549.186841  0.018143 -3.973295  0.297476
   scf:    2   -59547.952567   -59548.851160   -59548.851160  0.030020 -3.990076  0.967944
   scf:    3   -59549.280471   -59549.250342   -59549.250342  0.023599 -3.974012  0.091249
   scf:    4   -59549.269397   -59549.262627   -59549.262627  0.003531 -3.973986  0.028870
   scf:    5   -59549.265002   -59549.263953   -59549.263953  0.000505 -3.974074  0.011862
   scf:    6   -59549.264717   -59549.264374   -59549.264374  0.000279 -3.974150  0.004112
   scf:    7   -59549.264475   -59549.264431   -59549.264431  0.000143 -3.974173  0.001598
   scf:    8   -59549.264444   -59549.264438   -59549.264438  0.000061 -3.974187  0.000823

SCF Convergence by DM+H criterion
max |DM_out - DM_in|         :     0.0000611802
max |H_out - H_in|      (eV) :     0.0008230518
SCF cycle converged after 8 iterations

Using DM_out to compute the final energy and forces
No. of atoms with KB's overlaping orbs in proc 0. Max # of overlaps:     121     230
System symmetry is of type slab but no DFTD3.Periodic list was found. Attempting to guess symmetry for D3.
Could not guess the right amount of periodicity directions for D3.
Enabling periodicity on all directions.

siesta: E_KS(eV) =           -59549.2850

siesta: Atomic forces (eV/Ang):
----------------------------------------
   Tot   -0.000290   -0.001555    0.001175
----------------------------------------
   Max    0.257560
   Res    0.055541    sqrt( Sum f_i^2 / 3N )
----------------------------------------
   Max    0.257564    constrained

Stress tensor Voigt[x,y,z,yz,xz,xy] (kbar):      -25.73      -25.76       -4.77       -0.00       -0.00        0.03
(Free)E + p*V (eV/cell)   -59325.9809
Target enthalpy (eV/cell)   -59549.2850

cgvc: Finished line minimization    2.  Mean atomic displacement =    0.0039

                     ====================================
                        Begin CG opt. move =      5
                     ====================================

outcell: Unit cell vectors (Ang):
       23.434647   -1.230000    0.000000
       12.782535   19.680000    0.000000
        0.000000    0.000000   40.000000

outcell: Cell vector modules (Ang)   :   23.466904   23.466904   40.000000
outcell: Cell angles (23,13,12) (deg):     90.0000     90.0000     60.0000
outcell: Cell volume (Ang**3)        :  19076.6552
<dSpData1D:S at geom step 5
  <sparsity:sparsity for geom step 5
    nrows_g=3276 nrows=63 sparsity=.0056 nnzs=60185, refcount: 7>
  <dData1D:(new from dSpData1D) n=60185, refcount: 1>
refcount: 1>
new_DM -- step:     6
Re-using DM from previous geometries...
Number of DMs in history: 1
 DM extrapolation coefficients: 
1   1.00000
New DM after history re-use:
<dSpData2D:SpM extrapolated using coords
  <sparsity:sparsity for geom step 5
    nrows_g=3276 nrows=63 sparsity=.0056 nnzs=60185, refcount: 9>
  <dData2D:(temp array for extrapolation) n=60185 m=1, refcount: 1>
refcount: 1>
No. of atoms with KB's overlaping orbs in proc 0. Max # of overlaps:     121     230

InitMesh: MESH = 216 x 216 x 432 = 20155392
InitMesh: Mesh cutoff (required, used) =   300.000   312.203 Ry
New grid distribution [1]: sub = 2
New grid distribution [2]: sub = 2
New grid distribution [3]: sub = 2
Setting up quadratic distribution...

        iscf     Eharris(eV)        E_KS(eV)     FreeEng(eV)     dDmax    Ef(eV) dHmax(eV)
   scf:    1   -59549.351595   -59549.328170   -59549.328170  0.003301 -3.981952  0.023901
   scf:    2   -59549.322579   -59549.326720   -59549.326720  0.002833 -3.982179  0.068365
   scf:    3   -59549.328652   -59549.328544   -59549.328544  0.002201 -3.981966  0.007090
   scf:    4   -59549.328691   -59549.328631   -59549.328631  0.000333 -3.981938  0.002906
   scf:    5   -59549.328665   -59549.328650   -59549.328650  0.000080 -3.981936  0.001160
   scf:    6   -59549.328655   -59549.328653   -59549.328653  0.000033 -3.981938  0.000413

SCF Convergence by DM+H criterion
max |DM_out - DM_in|         :     0.0000326530
max |H_out - H_in|      (eV) :     0.0004131538
SCF cycle converged after 6 iterations

Using DM_out to compute the final energy and forces
No. of atoms with KB's overlaping orbs in proc 0. Max # of overlaps:     121     230
System symmetry is of type slab but no DFTD3.Periodic list was found. Attempting to guess symmetry for D3.
Could not guess the right amount of periodicity directions for D3.
Enabling periodicity on all directions.

siesta: E_KS(eV) =           -59549.3235

siesta: Atomic forces (eV/Ang):
----------------------------------------
   Tot   -0.000062    0.000183    0.000676
----------------------------------------
   Max    0.144461
   Res    0.032815    sqrt( Sum f_i^2 / 3N )
----------------------------------------
   Max    0.144461    constrained

Stress tensor Voigt[x,y,z,yz,xz,xy] (kbar):      -25.75      -25.76       -4.77       -0.00        0.00        0.01
(Free)E + p*V (eV/cell)   -59325.9536
Target enthalpy (eV/cell)   -59549.3235

                     ====================================
                        Begin CG opt. move =      6
                     ====================================

outcell: Unit cell vectors (Ang):
       23.434647   -1.230000    0.000000
       12.782535   19.680000    0.000000
        0.000000    0.000000   40.000000

outcell: Cell vector modules (Ang)   :   23.466904   23.466904   40.000000
outcell: Cell angles (23,13,12) (deg):     90.0000     90.0000     60.0000
outcell: Cell volume (Ang**3)        :  19076.6552
<dSpData1D:S at geom step 6
  <sparsity:sparsity for geom step 6
    nrows_g=3276 nrows=63 sparsity=.0056 nnzs=60194, refcount: 7>
  <dData1D:(new from dSpData1D) n=60194, refcount: 1>
refcount: 1>
new_DM -- step:     7
Re-using DM from previous geometries...
Number of DMs in history: 1
 DM extrapolation coefficients: 
1   1.00000
New DM after history re-use:
<dSpData2D:SpM extrapolated using coords
  <sparsity:sparsity for geom step 6
    nrows_g=3276 nrows=63 sparsity=.0056 nnzs=60194, refcount: 9>
  <dData2D:(temp array for extrapolation) n=60194 m=1, refcount: 1>
refcount: 1>
No. of atoms with KB's overlaping orbs in proc 0. Max # of overlaps:     121     230

InitMesh: MESH = 216 x 216 x 432 = 20155392
InitMesh: Mesh cutoff (required, used) =   300.000   312.203 Ry
New grid distribution [1]: sub = 2
New grid distribution [2]: sub = 2
New grid distribution [3]: sub = 2
Setting up quadratic distribution...

        iscf     Eharris(eV)        E_KS(eV)     FreeEng(eV)     dDmax    Ef(eV) dHmax(eV)
   scf:    1   -59549.377638   -59549.339130   -59549.339130  0.005308 -3.994929  0.032636
   scf:    2   -59549.323197   -59549.334901   -59549.334901  0.004078 -3.995165  0.113604
   scf:    3   -59549.340415   -59549.340085   -59549.340085  0.003168 -3.994936  0.011668
   scf:    4   -59549.340473   -59549.340313   -59549.340313  0.000514 -3.994905  0.004715
   scf:    5   -59549.340403   -59549.340363   -59549.340363  0.000126 -3.994914  0.001823
   scf:    6   -59549.340379   -59549.340372   -59549.340372  0.000058 -3.994925  0.000693

SCF Convergence by DM+H criterion
max |DM_out - DM_in|         :     0.0000581364
max |H_out - H_in|      (eV) :     0.0006934295
SCF cycle converged after 6 iterations

Using DM_out to compute the final energy and forces
No. of atoms with KB's overlaping orbs in proc 0. Max # of overlaps:     121     230
System symmetry is of type slab but no DFTD3.Periodic list was found. Attempting to guess symmetry for D3.
Could not guess the right amount of periodicity directions for D3.
Enabling periodicity on all directions.

siesta: E_KS(eV) =           -59549.3322

siesta: Atomic forces (eV/Ang):
----------------------------------------
   Tot   -0.001056   -0.000306   -0.000319
----------------------------------------
   Max    0.202903
   Res    0.045261    sqrt( Sum f_i^2 / 3N )
----------------------------------------
   Max    0.202904    constrained

Stress tensor Voigt[x,y,z,yz,xz,xy] (kbar):      -25.77      -25.76       -4.76       -0.00        0.00       -0.02
(Free)E + p*V (eV/cell)   -59325.9182
Target enthalpy (eV/cell)   -59549.3322

                     ====================================
                        Begin CG opt. move =      7
                     ====================================

outcell: Unit cell vectors (Ang):
       23.434647   -1.230000    0.000000
       12.782535   19.680000    0.000000
        0.000000    0.000000   40.000000

outcell: Cell vector modules (Ang)   :   23.466904   23.466904   40.000000
outcell: Cell angles (23,13,12) (deg):     90.0000     90.0000     60.0000
outcell: Cell volume (Ang**3)        :  19076.6552
<dSpData1D:S at geom step 7
  <sparsity:sparsity for geom step 7
    nrows_g=3276 nrows=63 sparsity=.0056 nnzs=60185, refcount: 7>
  <dData1D:(new from dSpData1D) n=60185, refcount: 1>
refcount: 1>
new_DM -- step:     8
Re-using DM from previous geometries...
Number of DMs in history: 1
 DM extrapolation coefficients: 
1   1.00000
New DM after history re-use:
<dSpData2D:SpM extrapolated using coords
  <sparsity:sparsity for geom step 7
    nrows_g=3276 nrows=63 sparsity=.0056 nnzs=60185, refcount: 9>
  <dData2D:(temp array for extrapolation) n=60185 m=1, refcount: 1>
refcount: 1>
No. of atoms with KB's overlaping orbs in proc 0. Max # of overlaps:     121     230

InitMesh: MESH = 216 x 216 x 432 = 20155392
InitMesh: Mesh cutoff (required, used) =   300.000   312.203 Ry
New grid distribution [1]: sub = 2
New grid distribution [2]: sub = 2
New grid distribution [3]: sub = 2
Setting up quadratic distribution...

        iscf     Eharris(eV)        E_KS(eV)     FreeEng(eV)     dDmax    Ef(eV) dHmax(eV)
   scf:    1   -59549.327056   -59549.333474   -59549.333474  0.005181 -3.990302  0.013194
   scf:    2   -59549.331814   -59549.333041   -59549.333041  0.001405 -3.990073  0.041203
   scf:    3   -59549.333614   -59549.333583   -59549.333583  0.001096 -3.990266  0.003547
   scf:    4   -59549.333631   -59549.333611   -59549.333611  0.000158 -3.990269  0.001733
   scf:    5   -59549.333624   -59549.333618   -59549.333618  0.000051 -3.990263  0.000618

SCF Convergence by DM+H criterion
max |DM_out - DM_in|         :     0.0000511598
max |H_out - H_in|      (eV) :     0.0006180621
SCF cycle converged after 5 iterations

Using DM_out to compute the final energy and forces
No. of atoms with KB's overlaping orbs in proc 0. Max # of overlaps:     121     230
System symmetry is of type slab but no DFTD3.Periodic list was found. Attempting to guess symmetry for D3.
Could not guess the right amount of periodicity directions for D3.
Enabling periodicity on all directions.

siesta: E_KS(eV) =           -59549.3366

siesta: Atomic forces (eV/Ang):
----------------------------------------
   Tot   -0.001156    0.000316    0.000626
----------------------------------------
   Max    0.123277
   Res    0.033192    sqrt( Sum f_i^2 / 3N )
----------------------------------------
   Max    0.123276    constrained

Stress tensor Voigt[x,y,z,yz,xz,xy] (kbar):      -25.76      -25.76       -4.76       -0.00        0.00       -0.01
(Free)E + p*V (eV/cell)   -59325.9264
Target enthalpy (eV/cell)   -59549.3366

cgvc: Finished line minimization    3.  Mean atomic displacement =    0.0078

                     ====================================
                        Begin CG opt. move =      8
                     ====================================

outcell: Unit cell vectors (Ang):
       23.434647   -1.230000    0.000000
       12.782535   19.680000    0.000000
        0.000000    0.000000   40.000000

outcell: Cell vector modules (Ang)   :   23.466904   23.466904   40.000000
outcell: Cell angles (23,13,12) (deg):     90.0000     90.0000     60.0000
outcell: Cell volume (Ang**3)        :  19076.6552
<dSpData1D:S at geom step 8
  <sparsity:sparsity for geom step 8
    nrows_g=3276 nrows=63 sparsity=.0056 nnzs=60116, refcount: 7>
  <dData1D:(new from dSpData1D) n=60116, refcount: 1>
refcount: 1>
new_DM -- step:     9
Re-using DM from previous geometries...
Number of DMs in history: 1
 DM extrapolation coefficients: 
1   1.00000
New DM after history re-use:
<dSpData2D:SpM extrapolated using coords
  <sparsity:sparsity for geom step 8
    nrows_g=3276 nrows=63 sparsity=.0056 nnzs=60116, refcount: 9>
  <dData2D:(temp array for extrapolation) n=60116 m=1, refcount: 1>
refcount: 1>
No. of atoms with KB's overlaping orbs in proc 0. Max # of overlaps:     121     230

InitMesh: MESH = 216 x 216 x 432 = 20155392
InitMesh: Mesh cutoff (required, used) =   300.000   312.203 Ry
New grid distribution [1]: sub = 2
New grid distribution [2]: sub = 2
New grid distribution [3]: sub = 2
Setting up quadratic distribution...

        iscf     Eharris(eV)        E_KS(eV)     FreeEng(eV)     dDmax    Ef(eV) dHmax(eV)
   scf:    1   -59549.307342   -59549.303774   -59549.303774  0.004992 -3.997147  0.136938
   scf:    2   -59549.136943   -59549.262305   -59549.262305  0.014029 -3.996900  0.332838
   scf:    3   -59549.331288   -59549.318024   -59549.318024  0.009980 -3.997090  0.013497
   scf:    4   -59549.318814   -59549.318515   -59549.318515  0.000537 -3.997154  0.007160
   scf:    5   -59549.318788   -59549.318666   -59549.318666  0.000117 -3.997173  0.003159
   scf:    6   -59549.318729   -59549.318702   -59549.318702  0.000078 -3.997189  0.001152
   scf:    7   -59549.318710   -59549.318706   -59549.318706  0.000037 -3.997194  0.000389

SCF Convergence by DM+H criterion
max |DM_out - DM_in|         :     0.0000371673
max |H_out - H_in|      (eV) :     0.0003893962
SCF cycle converged after 7 iterations

Using DM_out to compute the final energy and forces
No. of atoms with KB's overlaping orbs in proc 0. Max # of overlaps:     121     230
System symmetry is of type slab but no DFTD3.Periodic list was found. Attempting to guess symmetry for D3.
Could not guess the right amount of periodicity directions for D3.
Enabling periodicity on all directions.

siesta: E_KS(eV) =           -59549.3030

siesta: Atomic forces (eV/Ang):
----------------------------------------
   Tot   -0.001424    0.001447   -0.000649
----------------------------------------
   Max    0.429154
   Res    0.106310    sqrt( Sum f_i^2 / 3N )
----------------------------------------
   Max    0.429158    constrained

Stress tensor Voigt[x,y,z,yz,xz,xy] (kbar):      -25.77      -25.80       -4.75       -0.00        0.00        0.04
(Free)E + p*V (eV/cell)   -59325.7827
Target enthalpy (eV/cell)   -59549.3030

                     ====================================
                        Begin CG opt. move =      9
                     ====================================

outcell: Unit cell vectors (Ang):
       23.434647   -1.230000    0.000000
       12.782535   19.680000    0.000000
        0.000000    0.000000   40.000000

outcell: Cell vector modules (Ang)   :   23.466904   23.466904   40.000000
outcell: Cell angles (23,13,12) (deg):     90.0000     90.0000     60.0000
outcell: Cell volume (Ang**3)        :  19076.6552
<dSpData1D:S at geom step 9
  <sparsity:sparsity for geom step 9
    nrows_g=3276 nrows=63 sparsity=.0056 nnzs=60185, refcount: 7>
  <dData1D:(new from dSpData1D) n=60185, refcount: 1>
refcount: 1>
new_DM -- step:    10
Re-using DM from previous geometries...
Number of DMs in history: 1
 DM extrapolation coefficients: 
1   1.00000
New DM after history re-use:
<dSpData2D:SpM extrapolated using coords
  <sparsity:sparsity for geom step 9
    nrows_g=3276 nrows=63 sparsity=.0056 nnzs=60185, refcount: 9>
  <dData2D:(temp array for extrapolation) n=60185 m=1, refcount: 1>
refcount: 1>
No. of atoms with KB's overlaping orbs in proc 0. Max # of overlaps:     121     230

InitMesh: MESH = 216 x 216 x 432 = 20155392
InitMesh: Mesh cutoff (required, used) =   300.000   312.203 Ry
New grid distribution [1]: sub = 2
New grid distribution [2]: sub = 2
New grid distribution [3]: sub = 2
Setting up quadratic distribution...

        iscf     Eharris(eV)        E_KS(eV)     FreeEng(eV)     dDmax    Ef(eV) dHmax(eV)
   scf:    1   -59549.305889   -59549.330892   -59549.330892  0.006819 -3.994135  0.087604
   scf:    2   -59549.259432   -59549.313170   -59549.313170  0.008704 -3.994714  0.223882
   scf:    3   -59549.343095   -59549.337078   -59549.337078  0.006123 -3.994225  0.008714
   scf:    4   -59549.337383   -59549.337264   -59549.337264  0.000314 -3.994188  0.004715
   scf:    5   -59549.337382   -59549.337329   -59549.337329  0.000073 -3.994181  0.002113
   scf:    6   -59549.337357   -59549.337344   -59549.337344  0.000052 -3.994172  0.000799

SCF Convergence by DM+H criterion
max |DM_out - DM_in|         :     0.0000518738
max |H_out - H_in|      (eV) :     0.0007994516
SCF cycle converged after 6 iterations

Using DM_out to compute the final energy and forces
No. of atoms with KB's overlaping orbs in proc 0. Max # of overlaps:     121     230
System symmetry is of type slab but no DFTD3.Periodic list was found. Attempting to guess symmetry for D3.
Could not guess the right amount of periodicity directions for D3.
Enabling periodicity on all directions.

siesta: E_KS(eV) =           -59549.3478

siesta: Atomic forces (eV/Ang):
----------------------------------------
   Tot   -0.001731    0.001232    0.000662
----------------------------------------
   Max    0.116261
   Res    0.027878    sqrt( Sum f_i^2 / 3N )
----------------------------------------
   Max    0.116261    constrained

Stress tensor Voigt[x,y,z,yz,xz,xy] (kbar):      -25.76      -25.77       -4.76       -0.00        0.00        0.01
(Free)E + p*V (eV/cell)   -59325.9210
Target enthalpy (eV/cell)   -59549.3478

cgvc: Finished line minimization    4.  Mean atomic displacement =    0.0026

                     ====================================
                        Begin CG opt. move =     10
                     ====================================

outcell: Unit cell vectors (Ang):
       23.434647   -1.230000    0.000000
       12.782535   19.680000    0.000000
        0.000000    0.000000   40.000000

outcell: Cell vector modules (Ang)   :   23.466904   23.466904   40.000000
outcell: Cell angles (23,13,12) (deg):     90.0000     90.0000     60.0000
outcell: Cell volume (Ang**3)        :  19076.6552
<dSpData1D:S at geom step 10
  <sparsity:sparsity for geom step 10
    nrows_g=3276 nrows=63 sparsity=.0056 nnzs=60116, refcount: 7>
  <dData1D:(new from dSpData1D) n=60116, refcount: 1>
refcount: 1>
new_DM -- step:    11
Re-using DM from previous geometries...
Number of DMs in history: 1
 DM extrapolation coefficients: 
1   1.00000
New DM after history re-use:
<dSpData2D:SpM extrapolated using coords
  <sparsity:sparsity for geom step 10
    nrows_g=3276 nrows=63 sparsity=.0056 nnzs=60116, refcount: 9>
  <dData2D:(temp array for extrapolation) n=60116 m=1, refcount: 1>
refcount: 1>
No. of atoms with KB's overlaping orbs in proc 0. Max # of overlaps:     121     230

InitMesh: MESH = 216 x 216 x 432 = 20155392
InitMesh: Mesh cutoff (required, used) =   300.000   312.203 Ry
New grid distribution [1]: sub = 2
New grid distribution [2]: sub = 2
New grid distribution [3]: sub = 2
Setting up quadratic distribution...

        iscf     Eharris(eV)        E_KS(eV)     FreeEng(eV)     dDmax    Ef(eV) dHmax(eV)
   scf:    1   -59549.388032   -59549.366859   -59549.366859  0.001557 -3.997181  0.023117
   scf:    2   -59549.361392   -59549.365437   -59549.365437  0.002300 -3.996801  0.051832
   scf:    3   -59549.367564   -59549.367235   -59549.367235  0.001705 -3.997105  0.003631
   scf:    4   -59549.367280   -59549.367262   -59549.367262  0.000123 -3.997111  0.001847
   scf:    5   -59549.367278   -59549.367271   -59549.367271  0.000041 -3.997119  0.000657

SCF Convergence by DM+H criterion
max |DM_out - DM_in|         :     0.0000409752
max |H_out - H_in|      (eV) :     0.0006565775
SCF cycle converged after 5 iterations

Using DM_out to compute the final energy and forces
No. of atoms with KB's overlaping orbs in proc 0. Max # of overlaps:     121     230
System symmetry is of type slab but no DFTD3.Periodic list was found. Attempting to guess symmetry for D3.
Could not guess the right amount of periodicity directions for D3.
Enabling periodicity on all directions.

siesta: E_KS(eV) =           -59549.3603

siesta: Atomic forces (eV/Ang):
----------------------------------------
   Tot   -0.000388    0.001726    0.000184
----------------------------------------
   Max    0.078792
   Res    0.019787    sqrt( Sum f_i^2 / 3N )
----------------------------------------
   Max    0.078792    constrained

Stress tensor Voigt[x,y,z,yz,xz,xy] (kbar):      -25.77      -25.78       -4.75       -0.00        0.00        0.01
(Free)E + p*V (eV/cell)   -59325.9218
Target enthalpy (eV/cell)   -59549.3603

                     ====================================
                        Begin CG opt. move =     11
                     ====================================

outcell: Unit cell vectors (Ang):
       23.434647   -1.230000    0.000000
       12.782535   19.680000    0.000000
        0.000000    0.000000   40.000000

outcell: Cell vector modules (Ang)   :   23.466904   23.466904   40.000000
outcell: Cell angles (23,13,12) (deg):     90.0000     90.0000     60.0000
outcell: Cell volume (Ang**3)        :  19076.6552
<dSpData1D:S at geom step 11
  <sparsity:sparsity for geom step 11
    nrows_g=3276 nrows=63 sparsity=.0056 nnzs=60116, refcount: 7>
  <dData1D:(new from dSpData1D) n=60116, refcount: 1>
refcount: 1>
new_DM -- step:    12
Re-using DM from previous geometries...
Number of DMs in history: 1
 DM extrapolation coefficients: 
1   1.00000
New DM after history re-use:
<dSpData2D:SpM extrapolated using coords
  <sparsity:sparsity for geom step 11
    nrows_g=3276 nrows=63 sparsity=.0056 nnzs=60116, refcount: 9>
  <dData2D:(temp array for extrapolation) n=60116 m=1, refcount: 1>
refcount: 1>
No. of atoms with KB's overlaping orbs in proc 0. Max # of overlaps:     121     230

InitMesh: MESH = 216 x 216 x 432 = 20155392
InitMesh: Mesh cutoff (required, used) =   300.000   312.203 Ry
New grid distribution [1]: sub = 2
New grid distribution [2]: sub = 2
New grid distribution [3]: sub = 2
Setting up quadratic distribution...

        iscf     Eharris(eV)        E_KS(eV)     FreeEng(eV)     dDmax    Ef(eV) dHmax(eV)
   scf:    1   -59549.405934   -59549.373743   -59549.373743  0.006698 -4.000822  0.034473
   scf:    2   -59549.359653   -59549.370063   -59549.370063  0.003580 -4.000344  0.085307
   scf:    3   -59549.375444   -59549.374684   -59549.374684  0.002675 -4.000724  0.007294
   scf:    4   -59549.374808   -59549.374760   -59549.374760  0.000233 -4.000732  0.002794
   scf:    5   -59549.374799   -59549.374782   -59549.374782  0.000065 -4.000751  0.000900

SCF Convergence by DM+H criterion
max |DM_out - DM_in|         :     0.0000648375
max |H_out - H_in|      (eV) :     0.0008998497
SCF cycle converged after 5 iterations

Using DM_out to compute the final energy and forces
No. of atoms with KB's overlaping orbs in proc 0. Max # of overlaps:     121     230
System symmetry is of type slab but no DFTD3.Periodic list was found. Attempting to guess symmetry for D3.
Could not guess the right amount of periodicity directions for D3.
Enabling periodicity on all directions.

siesta: E_KS(eV) =           -59549.3637

siesta: Atomic forces (eV/Ang):
----------------------------------------
   Tot    0.000690    0.000698    0.000355
----------------------------------------
   Max    0.147021
   Res    0.035807    sqrt( Sum f_i^2 / 3N )
----------------------------------------
   Max    0.147023    constrained

Stress tensor Voigt[x,y,z,yz,xz,xy] (kbar):      -25.78      -25.78       -4.74       -0.00        0.00       -0.00
(Free)E + p*V (eV/cell)   -59325.9184
Target enthalpy (eV/cell)   -59549.3637

                     ====================================
                        Begin CG opt. move =     12
                     ====================================

outcell: Unit cell vectors (Ang):
       23.434647   -1.230000    0.000000
       12.782535   19.680000    0.000000
        0.000000    0.000000   40.000000

outcell: Cell vector modules (Ang)   :   23.466904   23.466904   40.000000
outcell: Cell angles (23,13,12) (deg):     90.0000     90.0000     60.0000
outcell: Cell volume (Ang**3)        :  19076.6552
<dSpData1D:S at geom step 12
  <sparsity:sparsity for geom step 12
    nrows_g=3276 nrows=63 sparsity=.0056 nnzs=60116, refcount: 7>
  <dData1D:(new from dSpData1D) n=60116, refcount: 1>
refcount: 1>
new_DM -- step:    13
Re-using DM from previous geometries...
Number of DMs in history: 1
 DM extrapolation coefficients: 
1   1.00000
New DM after history re-use:
<dSpData2D:SpM extrapolated using coords
  <sparsity:sparsity for geom step 12
    nrows_g=3276 nrows=63 sparsity=.0056 nnzs=60116, refcount: 9>
  <dData2D:(temp array for extrapolation) n=60116 m=1, refcount: 1>
refcount: 1>
No. of atoms with KB's overlaping orbs in proc 0. Max # of overlaps:     121     230

InitMesh: MESH = 216 x 216 x 432 = 20155392
InitMesh: Mesh cutoff (required, used) =   300.000   312.203 Ry
New grid distribution [1]: sub = 2
New grid distribution [2]: sub = 2
New grid distribution [3]: sub = 2
Setting up quadratic distribution...

        iscf     Eharris(eV)        E_KS(eV)     FreeEng(eV)     dDmax    Ef(eV) dHmax(eV)
   scf:    1   -59549.351624   -59549.361093   -59549.361093  0.005260 -3.999761  0.010389
   scf:    2   -59549.359748   -59549.360740   -59549.360740  0.001034 -3.999865  0.027870
   scf:    3   -59549.361255   -59549.361182   -59549.361182  0.000773 -3.999777  0.001890
   scf:    4   -59549.361198   -59549.361191   -59549.361191  0.000061 -3.999770  0.001076
   scf:    5   -59549.361197   -59549.361194   -59549.361194  0.000023 -3.999763  0.000405

SCF Convergence by DM+H criterion
max |DM_out - DM_in|         :     0.0000230921
max |H_out - H_in|      (eV) :     0.0004046422
SCF cycle converged after 5 iterations

Using DM_out to compute the final energy and forces
No. of atoms with KB's overlaping orbs in proc 0. Max # of overlaps:     121     230
System symmetry is of type slab but no DFTD3.Periodic list was found. Attempting to guess symmetry for D3.
Could not guess the right amount of periodicity directions for D3.
Enabling periodicity on all directions.

siesta: E_KS(eV) =           -59549.3648

siesta: Atomic forces (eV/Ang):
----------------------------------------
   Tot    0.000688    0.001021    0.000101
----------------------------------------
   Max    0.112073
   Res    0.028027    sqrt( Sum f_i^2 / 3N )
----------------------------------------
   Max    0.112075    constrained

Stress tensor Voigt[x,y,z,yz,xz,xy] (kbar):      -25.78      -25.78       -4.74       -0.00        0.00        0.00
(Free)E + p*V (eV/cell)   -59325.9167
Target enthalpy (eV/cell)   -59549.3648

cgvc: Finished line minimization    5.  Mean atomic displacement =    0.0054

                     ====================================
                        Begin CG opt. move =     13
                     ====================================

outcell: Unit cell vectors (Ang):
       23.434647   -1.230000    0.000000
       12.782535   19.680000    0.000000
        0.000000    0.000000   40.000000

outcell: Cell vector modules (Ang)   :   23.466904   23.466904   40.000000
outcell: Cell angles (23,13,12) (deg):     90.0000     90.0000     60.0000
outcell: Cell volume (Ang**3)        :  19076.6552
<dSpData1D:S at geom step 13
  <sparsity:sparsity for geom step 13
    nrows_g=3276 nrows=63 sparsity=.0056 nnzs=60097, refcount: 7>
  <dData1D:(new from dSpData1D) n=60097, refcount: 1>
refcount: 1>
new_DM -- step:    14
Re-using DM from previous geometries...
Number of DMs in history: 1
 DM extrapolation coefficients: 
1   1.00000
New DM after history re-use:
<dSpData2D:SpM extrapolated using coords
  <sparsity:sparsity for geom step 13
    nrows_g=3276 nrows=63 sparsity=.0056 nnzs=60097, refcount: 9>
  <dData2D:(temp array for extrapolation) n=60097 m=1, refcount: 1>
refcount: 1>
No. of atoms with KB's overlaping orbs in proc 0. Max # of overlaps:     121     230

InitMesh: MESH = 216 x 216 x 432 = 20155392
InitMesh: Mesh cutoff (required, used) =   300.000   312.203 Ry
New grid distribution [1]: sub = 2
New grid distribution [2]: sub = 2
New grid distribution [3]: sub = 2
Setting up quadratic distribution...

        iscf     Eharris(eV)        E_KS(eV)     FreeEng(eV)     dDmax    Ef(eV) dHmax(eV)
[...]
   20.59500292   13.53130910   18.26237564   1      66  C
   24.85534632   13.52948113   18.27558472   1      67  C
   29.11697019   13.52786817   18.24832743   1      68  C
    9.94427147   14.75814967   18.21341534   1      69  C
   14.20541413   14.76021849   18.20533429   1      70  C
   18.46530334   14.76181085   18.23485236   1      71  C
   22.72531191   14.76077582   18.27158472   1      72  C
   26.98620355   14.75838201   18.26285922   1      73  C
   31.24769769   14.75749467   18.21977971   1      74  C
   12.07468594   15.98907116   18.19117451   1      75  C
   16.33534203   15.99151956   18.20265414   1      76  C
   20.59522333   15.99193218   18.25049930   1      77  C
   24.85563572   15.98960122   18.27255169   1      78  C
   29.11659885   15.98747969   18.23640168   1      79  C
   33.37794587   15.98793391   18.19243389   1      80  C
   14.20464054   17.22057508   18.18002497   1      81  C
   18.46501046   17.22236144   18.21712162   1      82  C
   22.72514133   17.22109060   18.26671533   1      83  C
   26.98586036   17.21820231   18.25851432   1      84  C
   31.24659398   17.21716419   18.20754403   1      85  C
   12.07326986   18.44919642   18.17424219   1      86  C
   16.33432733   18.45190990   18.18795397   1      87  C
   20.59463454   18.45225735   18.24385304   1      88  C
   24.85515773   18.44974230   18.27127582   1      89  C
   29.11566718   18.44737402   18.23401774   1      90  C
   33.37638529   18.44801372   18.18452183   1      91  C
    2.84080579    0.00165984   18.18206665   1      92  C
    7.10151254    0.00231156   18.23441597   1      93  C
   11.36199978   -0.00000576   18.27213284   1      94  C
   15.62252372   -0.00264609   18.24555186   1      95  C
   19.88294792   -0.00230765   18.19282785   1      96  C
   24.14396014    0.00049869   18.17460310   1      97  C
    4.97062145    1.23245342   18.20875418   1      98  C
    9.23134520    1.23145024   18.26297233   1      99  C
   13.49202965    1.22862976   18.26628000   1     100  C
   17.75223406    1.22731256   18.22319823   1     101  C
   22.01264131    1.22908692   18.18506883   1     102  C
    2.83915677    2.46177853   18.19376325   1     103  C
    7.10055198    2.46224270   18.24234240   1     104  C
   11.36150502    2.46012314   18.27465205   1     105  C
   15.62195104    2.45779383   18.25454957   1     106  C
   19.88193651    2.45807122   18.20964067   1     107  C
   24.14251115    2.46054134   18.19393595   1     108  C
    4.96946676    3.69226472   18.22455062   1     109  C
    9.23093610    3.69136931   18.26997113   1     110  C
   13.49185152    3.68893577   18.27358527   1     111  C
   17.75182025    3.68790589   18.24181448   1     112  C
   22.01179529    3.68935839   18.20958643   1     113  C
   26.27295227    3.69150547   18.21685322   1     114  C
    7.10019111    4.92185336   18.25589916   1     115  C
   11.36180320    4.92016281   18.27886100   1     116  C
   15.62219900    4.91840911   18.26779138   1     117  C
   19.88179854    4.91866777   18.23557394   1     118  C
   24.14209260    4.92039037   18.22205875   1     119  C
    4.96916588    6.15151875   18.24442787   1     120  C
    9.23136401    6.15094361   18.27328109   1     121  C
   13.49260346    6.14922072   18.27911843   1     122  C
   17.75233553    6.14859217   18.26062639   1     123  C
   22.01186065    6.14963148   18.23782902   1     124  C
   26.27294425    6.15079673   18.24246762   1     125  C
    7.10058673    7.38104523   18.26526772   1     126  C
   11.36273778    7.38007731   18.27595374   1     127  C
   15.62318557    7.37907405   18.27484275   1     128  C
   19.88248863    7.37943622   18.25824250   1     129  C
   24.14258103    7.38021922   18.25007032   1     130  C
   28.40442105    7.38052387   18.26060843   1     131  C
    9.23241366    8.61033958   18.26886016   1     132  C
   13.49388716    8.60964909   18.27360592   1     133  C
   17.75357342    8.60959173   18.26929602   1     134  C
   22.01287724    8.61005392   18.26268336   1     135  C
   26.27377058    8.60995254   18.26307582   1     136  C
    7.10160726    9.83991301   18.26384693   1     137  C
   11.36394906    9.83980236   18.26252807   1     138  C
   15.62447998    9.83985733   18.26621018   1     139  C
   19.88371833    9.84023942   18.26816819   1     140  C
   24.14358462    9.84001505   18.26963373   1     141  C
   28.40539159    9.83939808   18.26555232   1     142  C
    9.23343793   11.06949498   18.25302240   1     143  C
   13.49496085   11.06993567   18.25170582   1     144  C
   17.75471736   11.07058827   18.26031669   1     145  C
   22.01409441   11.07044213   18.27359784   1     146  C
   26.27484185   11.06929731   18.27117608   1     147  C
   30.53723753   11.06882177   18.25116941   1     148  C
   11.36480849   12.29936200   18.23650022   1     149  C
   15.62546474   12.30059687   18.24187795   1     150  C
   19.88489993   12.30099739   18.26284718   1     151  C
   24.14479248   12.29980073   18.27661282   1     152  C
   28.40628640   12.29842804   18.25982139   1     153  C
    9.23391677   13.52844773   18.22926647   1     154  C
   13.49549299   13.52991122   18.21982560   1     155  C
   17.75546835   13.53131397   18.23982609   1     156  C
   22.01508911   13.53074297   18.27124288   1     157  C
   26.27563511   13.52880425   18.27012625   1     158  C
   30.53746292   13.52783650   18.23465920   1     159  C
   11.36474801   14.75889414   18.20673407   1     160  C
   15.62564991   14.76101462   18.21137123   1     161  C
   19.88536994   14.76164153   18.24949452   1     162  C
   24.14548419   14.75977615   18.27491285   1     163  C
   28.40653027   14.75777532   18.24939124   1     164  C
   32.66814494   14.75779127   18.20703784   1     165  C
   13.49508813   15.99000637   18.18972063   1     166  C
   17.75544282   15.99190589   18.21649056   1     167  C
   22.01531055   15.99107215   18.26367075   1     168  C
   26.27582859   15.98844673   18.26590098   1     169  C
   30.53686357   15.98713984   18.21993239   1     170  C
   11.36378703   17.21868053   18.18323763   1     171  C
   15.62492102   17.22134863   18.18691256   1     172  C
   19.88503818   17.22208895   18.23645584   1     173  C
   24.14528061   17.21983408   18.27186858   1     174  C
   28.40593101   17.21737788   18.24266767   1     175  C
   32.66691720   17.21755808   18.19270110   1     176  C
   13.49365210   18.45023592   18.17273466   1     177  C
   17.75447621   18.45225971   18.20408690   1     178  C
   22.01465320   18.45133484   18.26053531   1     179  C
   26.27529952   18.44839290   18.26468008   1     180  C
   30.53582358   18.44699161   18.21533647   1     181  C
   34.79677654   18.44881174   18.17548118   1     182  C
    3.66078582    0.84951684   21.81156344   1     183  C
    7.89770043    0.40321250   21.76295862   1     184  C
   12.13502904   -0.04026229   21.73866173   1     185  C
   16.37244144   -0.48396472   21.77037554   1     186  C
   20.60968962   -0.93063049   21.81501651   1     187  C
    1.67169813    2.29707862   21.81886298   1     188  C
    5.90849507    1.84926944   21.78398969   1     189  C
   10.14538892    1.40455780   21.74378397   1     190  C
   14.38290888    0.96138693   21.74892608   1     191  C
   18.62048638    0.51637471   21.79256780   1     192  C
   22.85805262    0.06832427   21.82551402   1     193  C
    3.91936463    3.29627556   21.79520359   1     194  C
    8.15583835    2.84997909   21.75521562   1     195  C
   12.39303856    2.40634491   21.73711785   1     196  C
   16.63093447    1.96240075   21.76498657   1     197  C
   20.86877894    1.51579762   21.80805627   1     198  C
    6.16640182    4.29622024   21.76444601   1     199  C
   10.40303937    3.85129891   21.73757128   1     200  C
   14.64077766    3.40771639   21.74237719   1     201  C
   18.87900390    2.96248031   21.78031199   1     202  C
   23.11702949    2.51474994   21.81074130   1     203  C
    4.17703951    5.74329540   21.76809322   1     204  C
    8.41320997    5.29707710   21.74142798   1     205  C
   12.65036364    4.85286013   21.73235282   1     206  C
   16.88876515    4.40837664   21.75189586   1     207  C
   21.12721838    3.96191697   21.78904109   1     208  C
   25.36473718    3.51378179   21.79599040   1     209  C
    6.42348296    6.74359010   21.74259845   1     210  C
   10.65988616    6.29833134   21.73054530   1     211  C
   14.89789444    5.85391041   21.73467222   1     212  C
   19.13677944    5.40823030   21.76038503   1     213  C
   23.37504533    4.96109488   21.78355069   1     214  C
    8.66971714    7.74435029   21.73124983   1     215  C
   12.90679569    7.29930944   21.72968412   1     216  C
   17.14568932    6.85408797   21.73909000   1     217  C
   21.38464859    6.40771929   21.76253790   1     218  C
   25.62213022    5.96052711   21.76442761   1     219  C
    6.68002241    9.19110237   21.73155367   1     220  C
   10.91623630    8.74523453   21.73282320   1     221  C
   15.15438181    8.29981649   21.73341677   1     222  C
   19.39366444    7.85379049   21.74253971   1     223  C
   23.63205690    7.40730562   21.75222765   1     224  C
   27.86853498    6.96051600   21.74220332   1     225  C
    8.92605534   10.19175646   21.73603380   1     226  C
   13.16317634    9.74570794   21.73921695   1     227  C
   17.40215359    9.29967531   21.73565449   1     228  C
   21.64132958    8.85351772   21.73957647   1     229  C
   25.87877121    8.40741797   21.73669367   1     230  C
   11.17258605   11.19200181   21.74947623   1     231  C
   15.41069972   10.74555744   21.74368786   1     232  C
   19.65002531   10.29929903   21.73429577   1     233  C
   23.88846708    9.85372486   21.72983686   1     234  C
   28.12498080    9.40798685   21.72915253   1     235  C
    9.18272731   12.63902519   21.75632072   1     236  C
   13.41995626   12.19185027   21.76038351   1     237  C
   17.65866275   11.74509846   21.74385514   1     238  C
   21.89763514   11.29940763   21.72715503   1     239  C
   26.13505598   10.85444715   21.72398027   1     240  C
   30.37098938   10.40864595   21.73730296   1     241  C
   11.42968115   13.63873325   21.77664713   1     242  C
   15.66764117   13.19122706   21.76523415   1     243  C
   19.90662775   12.74491827   21.73682885   1     244  C
   24.14476594   12.30021855   21.72216385   1     245  C
   28.38149093   11.85540063   21.73354502   1     246  C
   13.67736295   14.63786579   21.78868667   1     247  C
   17.91574915   14.19057524   21.76109771   1     248  C
   22.15429534   13.74535595   21.72859447   1     249  C
   26.39164341   13.30139706   21.72876937   1     250  C
   30.62786872   12.85603759   21.75716160   1     251  C
   11.68770580   16.08525884   21.80552562   1     252  C
   15.92557024   15.63688463   21.79124144   1     253  C
   20.16384990   15.19066024   21.74825530   1     254  C
   24.40163707   14.74663003   21.72756466   1     255  C
   28.63850906   14.30247436   21.75011084   1     256  C
   32.87469349   13.85598211   21.78497516   1     257  C
   13.93584845   17.08407328   21.81460758   1     258  C
   18.17379140   16.63645134   21.77949442   1     259  C
   22.41166570   16.19155908   21.73721519   1     260  C
   26.64902375   15.74815312   21.74023414   1     261  C
   30.88559019   15.30300340   21.77977106   1     262  C
   16.18427106   18.08298462   21.81028824   1     263  C
   20.42185681   17.63676521   21.75981335   1     264  C
   24.65936855   17.19308160   21.73539211   1     265  C
   28.89643057   16.74933646   21.76502333   1     266  C
   33.13307565   16.30277929   21.80822742   1     267  C
   14.19504793   19.53045976   21.82573557   1     268  C
   18.43242112   19.08266908   21.78928204   1     269  C
   22.66970717   18.63800071   21.74312229   1     270  C
   26.90710951   18.19481622   21.74795158   1     271  C
   31.14413412   17.74981024   21.79253993   1     272  C
   35.38124069   17.30177290   21.82418162   1     273  C
    0.83593963    1.14856311   21.82633898   1     274  C
    5.07308458    0.70047965   21.79706365   1     275  C
    9.31004549    0.25549581   21.74954917   1     276  C
   13.54745231   -0.18764579   21.74425366   1     277  C
   17.78482088   -0.63233884   21.78624804   1     278  C
   22.02214242   -1.08010791   21.82443374   1     279  C
    3.08408465    2.14757010   21.81102906   1     280  C
    7.32078728    1.70091156   21.76813251   1     281  C
   11.55783454    1.25717572   21.73867864   1     282  C
   15.79535873    0.81359067   21.76168995   1     283  C
   20.03293871    0.36732182   21.80686633   1     284  C
    5.33161226    3.14720312   21.78215985   1     285  C
    9.56817499    2.70208637   21.74496008   1     286  C
   13.80551917    2.25872222   21.74168079   1     287  C
   18.04335516    1.81396571   21.78012813   1     288  C
   22.28131828    1.36632970   21.81733361   1     289  C
    3.34237098    4.59431663   21.78774652   1     290  C
    7.57866380    4.14775302   21.75336597   1     291  C
   11.81551012    3.70361291   21.73465941   1     292  C
   16.05335477    3.25964681   21.75265110   1     293  C
   20.29160757    2.81344876   21.79388020   1     294  C
   24.52955318    2.36513943   21.81112881   1     295  C
    5.58928729    5.59430447   21.75760600   1     296  C
    9.82559869    5.14895535   21.73590973   1     297  C
   14.06294180    4.70490773   21.73562104   1     298  C
   18.30138097    4.25975206   21.76432808   1     299  C
   22.53981037    3.81253927   21.79675408   1     300  C
    7.83573475    6.59490684   21.73711642   1     301  C
   12.07238342    6.15011798   21.72980733   1     302  C
   16.31059926    5.70541402   21.74091990   1     303  C
   20.54944861    5.25923470   21.77168267   1     304  C
   24.78750811    4.81166954   21.78271741   1     305  C
    5.84611349    8.04161803   21.73721946   1     306  C
   10.08208231    7.59590142   21.73002116   1     307  C
   14.31956632    7.15093257   21.73139813   1     308  C
   18.55852374    6.70523815   21.74622023   1     309  C
   22.79732029    6.25853509   21.76678076   1     310  C
   27.03441118    5.81126358   21.75803824   1     311  C
    8.09225145    9.04232085   21.73132189   1     312  C
   12.32877706    8.59666158   21.73286286   1     313  C
   16.56719049    8.15103401   21.73469429   1     314  C
   20.80644691    7.70478291   21.74786768   1     315  C
   25.04452218    7.25820884   21.75070909   1     316  C
   10.33837406   10.04285668   21.73883581   1     317  C
   14.57587785    9.59684471   21.73797152   1     318  C
   18.81502947    9.15070402   21.73641537   1     319  C
   23.05398240    8.70465041   21.74004530   1     320  C
   27.29110196    8.25850848   21.73459383   1     321  C
    8.34860821   11.48976787   21.74213997   1     322  C
   12.58514283   11.04303392   21.74953998   1     323  C
   16.82350677   10.59656530   21.73994276   1     324  C
   21.06281992   10.15054624   21.73233493   1     325  C
   25.30090002    9.70501358   21.72827057   1     326  C
   29.53717151    9.25914281   21.73116280   1     327  C
   10.59507246   12.48984784   21.76099069   1     328  C
   14.83259624   12.04271021   21.75587241   1     329  C
   19.07150848   11.59622522   21.73724038   1     330  C
   23.31027836   11.15101459   21.72448366   1     331  C
   27.54744691   10.70596461   21.72686445   1     332  C
   12.84222494   13.48931866   21.77587340   1     333  C
   17.08038144   13.04211341   21.75680753   1     334  C
   21.31929293   12.59648081   21.72925303   1     335  C
   25.55722979   12.15207962   21.72331883   1     336  C
   29.79371525   11.70677569   21.74199133   1     337  C
   10.85241998   14.93666721   21.79046627   1     338  C
   15.08995395   14.48846355   21.78245060   1     339  C
   19.32840891   14.04192781   21.74776750   1     340  C
   23.56676079   13.59747565   21.72434195   1     341  C
   27.80398431   13.15327175   21.73643596   1     342  C
   32.04007865   12.70702177   21.76675401   1     343  C
   13.10022962   15.93559671   21.80441319   1     344  C
   17.33816814   15.48785844   21.77818067   1     345  C
   21.57645208   15.04260152   21.73673538   1     346  C
   25.81410440   14.59902921   21.73084022   1     347  C
   30.05078677   14.15408209   21.76272609   1     348  C
   15.34843273   16.93451085   21.80797340   1     349  C
   19.58629640   16.48799702   21.76266861   1     350  C
   23.82411559   16.04402674   21.73213411   1     351  C
   28.06133139   15.60031037   21.75165939   1     352  C
   32.29783473   15.15406758   21.79312861   1     353  C
   13.35905416   18.38203790   21.82397057   1     354  C
   17.59670378   17.93399459   21.79501679   1     355  C
   21.83423262   17.48893834   21.74589681   1     356  C
   26.07175534   17.04573628   21.74007397   1     357  C
   30.30871332   16.60098526   21.78006167   1     358  C
   34.54547348   16.15327129   21.81556835   1     359  C
   15.60759710   19.38092489   21.81875017   1     360  C
   19.84477800   18.93430286   21.77098626   1     361  C
   24.08215299   18.49059383   21.73747897   1     362  C
   28.31948133   18.04712893   21.76130477   1     363  C
   32.55644254   17.60088079   21.80726429   1     364  C

siesta: Program's energy decomposition (eV):
siesta: Ebs     =    -19318.488935
siesta: Eions   =    102706.861614
siesta: Ena     =     22679.417917
siesta: Ekin    =     41369.265158
siesta: Enl     =     -2098.876106
siesta: Eso     =         0.000000
siesta: Edftu   =         0.000000
siesta: DEna    =      2383.806858
siesta: DUscf   =       121.191808
siesta: DUext   =         0.000000
siesta: Ex      =    -19415.589725
siesta: Ec      =     -1846.273459
siesta: Exc     =    -21261.863184
siesta: EbV     =         0.000000
siesta: eta*DQ  =         0.000000
siesta: Emadel  =         0.000000
siesta: Emeta   =         0.000000
siesta: Emolmec =         0.000000
siesta: Ekinion =         0.000000
siesta: Eharris =    -59549.494021
siesta: Etot    =    -59549.492560
siesta: FreeEng =    -59549.492560

siesta: Final energy (eV):
siesta:  Band Struct. =  -19318.488935
siesta:       Kinetic =   41369.265158
siesta:       Hartree =  964366.394291
siesta:         Edftu =       0.000000
siesta:       Eso     =       0.000000
siesta:    Ext. field =       0.000000
siesta:         Exch. =  -19415.589725
siesta:         Corr. =   -1846.273459
siesta:     Bulk bias =       0.000000
siesta:   Exch.-corr. =  -21261.863184
siesta:  Ion-electron =-1966175.113187
siesta:       Ion-ion =  922187.397759
siesta:       Ekinion =       0.000000
siesta: D3 dispersion =     -35.573398
siesta:         Total =  -59549.492560
siesta:         Fermi =      -3.939472

siesta: Stress tensor (static) (eV/Ang**3):
siesta:    -0.016159    0.000001    0.000000
siesta:     0.000001   -0.016161   -0.000000
siesta:     0.000000   -0.000000   -0.002584

siesta: Cell volume =      19076.655174 Ang**3

siesta: Pressure (static):
siesta:                Solid            Molecule  Units
siesta:           0.00012672          0.00012670  Ry/Bohr**3
siesta:           0.01163453          0.01163327  eV/Ang**3
siesta:          18.64056553         18.63854973  kBar
(Free)E+ p_basis*V_orbitals  =      -59330.129427
(Free)Eharris+ p_basis*V_orbitals  =      -59330.130888

siesta: Electric dipole (a.u.)  =    0.000000    0.000000   -0.000056
siesta: Electric dipole (Debye) =    0.000000    0.000000   -0.000144

cite: Please see "Graphene.bib" for an exhaustive BiBTeX file.
cite: Please clearly indicate Siesta version in published work: 5.0.0-alpha-112-g6e4f53aee-dirty
cite: This calculation has made use of the following articles
cite: which are encouraged to be cited in a published work.
        Primary SIESTA paper
          DOI: www.doi.org/10.1088/0953-8984/14/11/302
 
 
>> End of run:   1-DEC-2024  15:13:53
Job completed
