Siesta Version  : 5.0.0-alpha-112-g6e4f53aee-dirty
Architecture    : ----
Compiler version: Intel-2021.8.0.20221119
Compiler flags  : -O2 -ip -xHost -fp-model=strict -prec-div -prec-sqrt
PP flags        : ----
Libraries       : ----
Parallelisations: MPI
GEMM3M support
NetCDF support
NetCDF-4 support

Runtime information:
* Directory : /n/holylabs/LABS/kaxiras_lab/axzhu/projects/AM207-final-project/N_8/DFT-structures
* Running on 64 nodes in parallel.
>> Start of run:  30-NOV-2024  21:31:29

                           *********************** 
                           *  WELCOME TO SIESTA  * 
                           *********************** 

reinit: Reading from standard input
reinit: Dumping input in INPUT_TMP.93325
************************** Dump of input data file ****************************
#################################
#				#
#	Basic Information	#
#	      			#
#################################
SystemName      Graphene
SystemLabel     Graphene
#########################################
#					#
#	Structural Information		#
#					#
#########################################
%include structure.fdf
#################################
#                               #
#       DFT Parameters          #
#                               #
#################################
SolutionMethod diagon           # Method of solving system. Can change to OrderN, transiesta, etc.
#Diag.Algorithm MRRR
#NumberOfEigenStates -20 # this will include first 10 conduction bands
XC.Functional   GGA
XC.Authors      PBE
DFTD3 true
Spin non-polarized
# This is causing memory issues, keep it low for now.
Mesh.Cutoff 300 Ry              # Cut off plane waves with kinetic energy higher than this.
MaxSCFIterations 300            # Max number of iterations in the SCF loop.
DM.UseSaveDM true
MinSCFIterations       3
SCF.DM.Tolerance       0.0001
SCF.Mixer.Weight       0.10
SCF.Mixer.History      12
SCF.Mix.First          true
#################################
#                               #
#             Basis             #
#                               #
#################################
#PAO.BasisSize   DZP
PAO.Basis < basis.fdf
#########################################
#					#
#	k-points, Bands, DOS		#
#		  	 		#
#########################################
%block kgrid_Monkhorst_Pack
   1  0  0  0.0
   0  1  0  0.0
   0  0  1  0.0
%endblock kgrid_Monkhorst_Pack
#BandLinesScale ReciprocalLatticeVectors
#%block BandLines
#1   0.6666666667  0.3333333333  0.0000000000  K
#10  0.0000000000  0.0000000000  0.0000000000  Gamma
#10  0.5000000000  0.0000000000  0.0000000000  M
#10  0.6666666667  0.3333333333  0.0000000000  K
#%endblock BandLines
# Local density of states (LDOS)
# %block LocalDensityOfStates
# EF 8.40 8.50 eV
# %endblock LocalDensityOfStates
#########################################
#                                       #
#             Wavefunctions             #
#                                       #
#########################################
#WaveFuncKPointsScale ReciprocalLatticeVectors
#%block WaveFuncKPoints
#0.666 0.333 0.000 from 4375 to 4378 # K wavefuncs 4375 to 4378
#0.000 0.000 0.000 from 4375 to 4378 # Gamma wavefuncs 4375 to 4378
#0.500 0.000 0.000 from 4375 to 4378 # M wavefuncs 4375 to 4378
#%endblock WaveFuncKPoints
#WriteDenchar T
#########################################
#                                       #
#       Geometry Optimisation           #
#                                       #
#########################################
MD.UseSaveXV true
MD.TypeOfRun           CG                  # Conjugate Gradient
MD.NumCGsteps          200                 # Max number of steps
MD.MaxForceTol         0.01    eV/Ang      # 10 meV/Ang
MD.VariableCell        false               # Don't relax cell
MD.MaxCGDispl          0.5 Bohr            # Maximum displacement of any atom
# Fix COM in Z direction only
%block Geometry.Constraints
 center all 0.0 0.0 1.0
%endblock Geometry.Constraints
************************** End of input data file *****************************

reinit: -----------------------------------------------------------------------
reinit: System Name: Graphene
reinit: -----------------------------------------------------------------------
reinit: System Label: Graphene
reinit: -----------------------------------------------------------------------

initatom: Reading input for the pseudopotentials and atomic orbitals ----------
Species number:   1 Atomic number:    6 Label: C
 

---- Processing specs for species: C
Ground state valence configuration:   2s02  2p02
Reading pseudopotential information in PSML from:
  C.psml
PSML file version: 1.1
Using libxc ids:  101 130
GGA--PBE XC_GGA_X_PBE--XC_GGA_C_PBE pb
 Using ATOM defaults for log grid...
PSML uuid: 297821e0-be41-11e7-6802-e1ff7dfff095

---- Pseudopotential check for C 

Pseudized shells:
2s( 2.00) rc: 1.20
2p( 2.00) rc: 1.26
Valence configuration for ps generation: 2s:2p: Total charge:   4.000000
For C, standard SIESTA heuristics set lmxkb to 3
 (one more than the basis l, including polarization orbitals).
Use PS.lmax or PS.KBprojectors blocks to override.
C pseudopotential only contains V_ls up to l=1 -- lmxkb reset.

<basis_specs>
===============================================================================
C                    Z=   6    Mass=  12.011        Charge= 0.99941    
Lmxo=2 Lmxkb= 1    BasisType=split      Semic=F
L=0  Nsemic=0  Cnfigmx=2
          i=1  nzeta=1  polorb=0  (2s)
            splnorm:   0.15000    
               vcte:    132.57    
               rinn:    4.5256    
               qcoe:    0.0000    
               qyuk:    0.0000    
               qwid:   0.10000E-01
                rcs:    6.0009    
            lambdas:    1.0000    
L=1  Nsemic=0  Cnfigmx=2
          i=1  nzeta=1  polorb=0  (2p)
            splnorm:   0.15000    
               vcte:    6.0639    
               rinn:    6.0646    
               qcoe:    0.0000    
               qyuk:    0.0000    
               qwid:   0.10000E-01
                rcs:    6.7108    
            lambdas:    1.0000    
L=2  Nsemic=0  Cnfigmx=3
          i=1  nzeta=1  polorb=0  (3d)
            splnorm:   0.15000    
               vcte:    14.478    
               rinn:    4.3208    
               qcoe:    0.0000    
               qyuk:    0.0000    
               qwid:   0.10000E-01
                rcs:    6.2254    
            lambdas:    1.0000    
-------------------------------------------------------------------------------
L=0  Nkbl=1  erefs: 0.17977+309
L=1  Nkbl=1  erefs: 0.17977+309
===============================================================================
</basis_specs>

atom: Called for C                     (Z =   6)
NOTE: C pseudopotential has channels up to l= 1
NOTE: PAOs with higher l will be generated with V_local

read_vps: Pseudopotential generation method:
read_vps: ONCVPSP-3.Hamann's oncvpsp                        
Valence charge in pseudo generation:    4.00000

read_vps: Pseudopotential includes a core correction:
read_vps: Pseudo-core for xc-correction

xc_check: Exchange-correlation functional:
xc_check: GGA Perdew, Burke & Ernzerhof 1996
Got Vlocal (oncv-fit) from psml data
Choosing vlocal chloc cutoff:  4.139772
qtot up to nchloc:    3.99998844
atom: Maximum radius for chlocal:    4.13977
atom: Maximum radius for r*vlocal+2*Zval:    4.13977
Reading KB projs from C psml data
Using scalar-relativistic projectors in PSML file

PSML: Kleinman-Bylander projectors: 
   l= 0   rc=  1.231096   Ekb= 12.963096
   l= 0   rc=  1.231096   Ekb=  0.771007
   l= 1   rc=  1.294237   Ekb= -8.399923
   l= 1   rc=  1.294237   Ekb= -1.755033

PSML: Total number of  Kleinman-Bylander projectors:   8
atom: -------------------------------------------------------------------------

atom: SANKEY-TYPE ORBITALS:

atom: basis set generated (by rescaling the valence charge)
atom: for a cation of charge   0.9994

SPLIT: Orbitals with angular momentum L= 0

SPLIT: Basis orbitals for state 2s

   izeta = 1
                 lambda =    1.000000
                     rc =    6.099293
                 energy =   -2.079355
                kinetic =    1.090115
    potential(screened) =   -3.169470
       potential(ionic) =   -5.727963

SPLIT: Orbitals with angular momentum L= 1

SPLIT: Basis orbitals for state 2p

   izeta = 1
                 lambda =    1.000000
                     rc =    6.740804
                 energy =   -1.441657
                kinetic =    3.222058
    potential(screened) =   -4.663715
       potential(ionic) =   -7.206130
*Note: V_local used for l= 2

** Using vlocal for PAOs with L= 2

SPLIT: Orbitals with angular momentum L= 2

SPLIT: Basis orbitals for state 3d

   izeta = 1
                 lambda =    1.000000
                     rc =    6.253707
                 energy =    0.017329
                kinetic =    1.197074
    potential(screened) =   -1.179745
       potential(ionic) =   -2.838380
atom: Total number of Sankey-type orbitals:  9

atm_pop: Valence configuration (for local Pseudopot. screening):
 2s( 2.00)                                                            
 2p( 2.00)                                                            
 3d( 0.00)                                                            
Vna: chval, zval:    4.00000   4.00000

Vna:  Cut-off radius for the neutral-atom potential:   6.740804
comcore: Pseudo-core radius Rcore=  1.682861

atom: _________________________________________________________________________

prinput: Basis input 

PAO.BasisType split     

%block ChemicalSpeciesLabel
    1    6 C                       # Species index, atomic number, species label
%endblock ChemicalSpeciesLabel

%block PAO.Basis                 # Define Basis set
# WARNING: This information might be incomplete!
C                     3   0.999            # Label, l-shells, ionic net charge
 n=2   0   1                         # n, l, Nzeta 
   6.099   
   1.000   
 n=2   1   1                         # n, l, Nzeta 
   6.741   
   1.000   
 n=3   2   1                         # n, l, Nzeta 
   6.254   
   1.000   
%endblock PAO.Basis

prinput: ----------------------------------------------------------------------

Dumping basis to NetCDF file C.ion.nc
coor:   Atomic-coordinates input format  =     Cartesian coordinates
coor:                                          (in Angstroms)

siesta: WARNING: XV file not found

siesta: Atomic coordinates (Bohr) and species
siesta:      2.68394   0.00000  34.62923  1        1
siesta:     10.73577   0.00000  34.62923  1        2
siesta:     18.78760   0.00000  34.62923  1        3
siesta:     26.83943   0.00000  34.62923  1        4
siesta:     34.89126   0.00000  34.62923  1        5
siesta:     42.94309   0.00000  34.62923  1        6
siesta:     50.99492   0.00000  34.62923  1        7
siesta:     59.04675   0.00000  34.62923  1        8
siesta:      6.70986   2.32436  34.62923  1        9
siesta:     14.76169   2.32436  34.62923  1       10
siesta:     22.81352   2.32436  34.62923  1       11
siesta:     30.86535   2.32436  34.62923  1       12
siesta:     38.91718   2.32436  34.62923  1       13
siesta:     46.96901   2.32436  34.62923  1       14
siesta:     55.02084   2.32436  34.62923  1       15
siesta:     63.07267   2.32436  34.62923  1       16
siesta:     10.73577   4.64873  34.62923  1       17
siesta:     18.78760   4.64873  34.62923  1       18
siesta:     26.83943   4.64873  34.62923  1       19
siesta:     34.89126   4.64873  34.62923  1       20
siesta:     42.94309   4.64873  34.62923  1       21
siesta:     50.99492   4.64873  34.62923  1       22
siesta:     59.04675   4.64873  34.62923  1       23
siesta:      6.70986   6.97309  34.62923  1       24
siesta:     14.76169   6.97309  34.62923  1       25
siesta:     22.81352   6.97309  34.62923  1       26
siesta:     30.86535   6.97309  34.62923  1       27
siesta:     38.91718   6.97309  34.62923  1       28
siesta:     46.96901   6.97309  34.62923  1       29
siesta:     55.02084   6.97309  34.62923  1       30
siesta:     63.07267   6.97309  34.62923  1       31
siesta:     10.73577   9.29745  34.62923  1       32
siesta:     18.78760   9.29745  34.62923  1       33
siesta:     26.83943   9.29745  34.62923  1       34
siesta:     34.89126   9.29745  34.62923  1       35
siesta:     42.94309   9.29745  34.62923  1       36
siesta:     50.99492   9.29745  34.62923  1       37
siesta:     59.04675   9.29745  34.62923  1       38
siesta:     67.09858   9.29745  34.62923  1       39
siesta:     14.76169  11.62182  34.62923  1       40
siesta:     22.81352  11.62182  34.62923  1       41
siesta:     30.86535  11.62182  34.62923  1       42
siesta:     38.91718  11.62182  34.62923  1       43
siesta:     46.96901  11.62182  34.62923  1       44
siesta:     55.02084  11.62182  34.62923  1       45
siesta:     63.07267  11.62182  34.62923  1       46
siesta:     10.73577  13.94618  34.62923  1       47
siesta:     18.78760  13.94618  34.62923  1       48
siesta:     26.83943  13.94618  34.62923  1       49
siesta:     34.89126  13.94618  34.62923  1       50
siesta:     42.94309  13.94618  34.62923  1       51
siesta:     50.99492  13.94618  34.62923  1       52
siesta:     59.04675  13.94618  34.62923  1       53
siesta:     67.09858  13.94618  34.62923  1       54
siesta:     14.76169  16.27054  34.62923  1       55
siesta:     22.81352  16.27054  34.62923  1       56
siesta:     30.86535  16.27054  34.62923  1       57
siesta:     38.91718  16.27054  34.62923  1       58
siesta:     46.96901  16.27054  34.62923  1       59
siesta:     55.02084  16.27054  34.62923  1       60
siesta:     63.07267  16.27054  34.62923  1       61
siesta:     71.12450  16.27054  34.62923  1       62
siesta:     18.78760  18.59491  34.62923  1       63
siesta:     26.83943  18.59491  34.62923  1       64
siesta:     34.89126  18.59491  34.62923  1       65
siesta:     42.94309  18.59491  34.62923  1       66
siesta:     50.99492  18.59491  34.62923  1       67
siesta:     59.04675  18.59491  34.62923  1       68
siesta:     67.09858  18.59491  34.62923  1       69
siesta:     14.76169  20.91927  34.62923  1       70
siesta:     22.81352  20.91927  34.62923  1       71
siesta:     30.86535  20.91927  34.62923  1       72
siesta:     38.91718  20.91927  34.62923  1       73
siesta:     46.96901  20.91927  34.62923  1       74
siesta:     55.02084  20.91927  34.62923  1       75
siesta:     63.07267  20.91927  34.62923  1       76
siesta:     71.12450  20.91927  34.62923  1       77
siesta:     18.78760  23.24363  34.62923  1       78
siesta:     26.83943  23.24363  34.62923  1       79
siesta:     34.89126  23.24363  34.62923  1       80
siesta:     42.94309  23.24363  34.62923  1       81
siesta:     50.99492  23.24363  34.62923  1       82
siesta:     59.04675  23.24363  34.62923  1       83
siesta:     67.09858  23.24363  34.62923  1       84
siesta:     75.15041  23.24363  34.62923  1       85
siesta:     22.81352  25.56799  34.62923  1       86
siesta:     30.86535  25.56799  34.62923  1       87
siesta:     38.91718  25.56799  34.62923  1       88
siesta:     46.96901  25.56799  34.62923  1       89
siesta:     55.02084  25.56799  34.62923  1       90
siesta:     63.07267  25.56799  34.62923  1       91
siesta:     71.12450  25.56799  34.62923  1       92
siesta:     18.78760  27.89236  34.62923  1       93
siesta:     26.83943  27.89236  34.62923  1       94
siesta:     34.89126  27.89236  34.62923  1       95
siesta:     42.94309  27.89236  34.62923  1       96
siesta:     50.99492  27.89236  34.62923  1       97
siesta:     59.04675  27.89236  34.62923  1       98
siesta:     67.09858  27.89236  34.62923  1       99
siesta:     75.15041  27.89236  34.62923  1      100
siesta:     22.81352  30.21672  34.62923  1      101
siesta:     30.86535  30.21672  34.62923  1      102
siesta:     38.91718  30.21672  34.62923  1      103
siesta:     46.96901  30.21672  34.62923  1      104
siesta:     55.02084  30.21672  34.62923  1      105
siesta:     63.07267  30.21672  34.62923  1      106
siesta:     71.12450  30.21672  34.62923  1      107
siesta:     79.17633  30.21672  34.62923  1      108
siesta:     26.83943  32.54108  34.62923  1      109
siesta:     34.89126  32.54108  34.62923  1      110
siesta:     42.94309  32.54108  34.62923  1      111
siesta:     50.99492  32.54108  34.62923  1      112
siesta:     59.04675  32.54108  34.62923  1      113
siesta:     67.09858  32.54108  34.62923  1      114
siesta:     75.15041  32.54108  34.62923  1      115
siesta:     22.81352  34.86545  34.62923  1      116
siesta:     30.86535  34.86545  34.62923  1      117
siesta:     38.91718  34.86545  34.62923  1      118
siesta:     46.96901  34.86545  34.62923  1      119
siesta:     55.02084  34.86545  34.62923  1      120
siesta:     63.07267  34.86545  34.62923  1      121
siesta:     71.12450  34.86545  34.62923  1      122
siesta:     79.17633  34.86545  34.62923  1      123
siesta:     26.83943  37.18981  34.62923  1      124
siesta:     34.89126  37.18981  34.62923  1      125
siesta:     42.94309  37.18981  34.62923  1      126
siesta:     50.99492  37.18981  34.62923  1      127
siesta:     59.04675  37.18981  34.62923  1      128
siesta:     67.09858  37.18981  34.62923  1      129
siesta:     75.15041  37.18981  34.62923  1      130
siesta:     83.20224  37.18981  34.62923  1      131
siesta:     30.86535  39.51417  34.62923  1      132
siesta:     38.91718  39.51417  34.62923  1      133
siesta:     46.96901  39.51417  34.62923  1      134
siesta:     55.02084  39.51417  34.62923  1      135
siesta:     63.07267  39.51417  34.62923  1      136
siesta:     71.12450  39.51417  34.62923  1      137
siesta:     79.17633  39.51417  34.62923  1      138
siesta:     26.83943  41.83854  34.62923  1      139
siesta:     34.89126  41.83854  34.62923  1      140
siesta:     42.94309  41.83854  34.62923  1      141
siesta:     50.99492  41.83854  34.62923  1      142
siesta:     59.04675  41.83854  34.62923  1      143
siesta:     67.09858  41.83854  34.62923  1      144
siesta:     75.15041  41.83854  34.62923  1      145
siesta:     83.20224  41.83854  34.62923  1      146
siesta:     30.86535  44.16290  34.62923  1      147
siesta:     38.91718  44.16290  34.62923  1      148
siesta:     46.96901  44.16290  34.62923  1      149
siesta:     55.02084  44.16290  34.62923  1      150
siesta:     63.07267  44.16290  34.62923  1      151
siesta:     71.12450  44.16290  34.62923  1      152
siesta:     79.17633  44.16290  34.62923  1      153
siesta:     87.22816  44.16290  34.62923  1      154
siesta:     34.89126  46.48726  34.62923  1      155
siesta:     42.94309  46.48726  34.62923  1      156
siesta:     50.99492  46.48726  34.62923  1      157
siesta:     59.04675  46.48726  34.62923  1      158
siesta:     67.09858  46.48726  34.62923  1      159
siesta:     75.15041  46.48726  34.62923  1      160
siesta:     83.20224  46.48726  34.62923  1      161
siesta:     30.86535  48.81163  34.62923  1      162
siesta:     38.91718  48.81163  34.62923  1      163
siesta:     46.96901  48.81163  34.62923  1      164
siesta:     55.02084  48.81163  34.62923  1      165
siesta:     63.07267  48.81163  34.62923  1      166
siesta:     71.12450  48.81163  34.62923  1      167
siesta:     79.17633  48.81163  34.62923  1      168
siesta:     87.22816  48.81163  34.62923  1      169
siesta:      5.36789   0.00000  34.62923  1      170
siesta:     13.41972   0.00000  34.62923  1      171
siesta:     21.47155   0.00000  34.62923  1      172
siesta:     29.52338   0.00000  34.62923  1      173
siesta:     37.57521   0.00000  34.62923  1      174
siesta:     45.62704   0.00000  34.62923  1      175
siesta:     53.67887   0.00000  34.62923  1      176
siesta:     61.73070   0.00000  34.62923  1      177
siesta:      9.39380   2.32436  34.62923  1      178
siesta:     17.44563   2.32436  34.62923  1      179
siesta:     25.49746   2.32436  34.62923  1      180
siesta:     33.54929   2.32436  34.62923  1      181
siesta:     41.60112   2.32436  34.62923  1      182
siesta:     49.65295   2.32436  34.62923  1      183
siesta:     57.70478   2.32436  34.62923  1      184
siesta:      5.36789   4.64873  34.62923  1      185
siesta:     13.41972   4.64873  34.62923  1      186
siesta:     21.47155   4.64873  34.62923  1      187
siesta:     29.52338   4.64873  34.62923  1      188
siesta:     37.57521   4.64873  34.62923  1      189
siesta:     45.62704   4.64873  34.62923  1      190
siesta:     53.67887   4.64873  34.62923  1      191
siesta:     61.73070   4.64873  34.62923  1      192
siesta:      9.39380   6.97309  34.62923  1      193
siesta:     17.44563   6.97309  34.62923  1      194
siesta:     25.49746   6.97309  34.62923  1      195
siesta:     33.54929   6.97309  34.62923  1      196
siesta:     41.60112   6.97309  34.62923  1      197
siesta:     49.65295   6.97309  34.62923  1      198
siesta:     57.70478   6.97309  34.62923  1      199
siesta:     65.75661   6.97309  34.62923  1      200
siesta:     13.41972   9.29745  34.62923  1      201
siesta:     21.47155   9.29745  34.62923  1      202
siesta:     29.52338   9.29745  34.62923  1      203
siesta:     37.57521   9.29745  34.62923  1      204
siesta:     45.62704   9.29745  34.62923  1      205
siesta:     53.67887   9.29745  34.62923  1      206
siesta:     61.73070   9.29745  34.62923  1      207
siesta:      9.39380  11.62182  34.62923  1      208
siesta:     17.44563  11.62182  34.62923  1      209
siesta:     25.49746  11.62182  34.62923  1      210
siesta:     33.54929  11.62182  34.62923  1      211
siesta:     41.60112  11.62182  34.62923  1      212
siesta:     49.65295  11.62182  34.62923  1      213
siesta:     57.70478  11.62182  34.62923  1      214
siesta:     65.75661  11.62182  34.62923  1      215
siesta:     13.41972  13.94618  34.62923  1      216
siesta:     21.47155  13.94618  34.62923  1      217
siesta:     29.52338  13.94618  34.62923  1      218
siesta:     37.57521  13.94618  34.62923  1      219
siesta:     45.62704  13.94618  34.62923  1      220
siesta:     53.67887  13.94618  34.62923  1      221
siesta:     61.73070  13.94618  34.62923  1      222
siesta:     69.78253  13.94618  34.62923  1      223
siesta:     17.44563  16.27054  34.62923  1      224
siesta:     25.49746  16.27054  34.62923  1      225
siesta:     33.54929  16.27054  34.62923  1      226
siesta:     41.60112  16.27054  34.62923  1      227
siesta:     49.65295  16.27054  34.62923  1      228
siesta:     57.70478  16.27054  34.62923  1      229
siesta:     65.75661  16.27054  34.62923  1      230
siesta:     13.41972  18.59491  34.62923  1      231
siesta:     21.47155  18.59491  34.62923  1      232
siesta:     29.52338  18.59491  34.62923  1      233
siesta:     37.57521  18.59491  34.62923  1      234
siesta:     45.62704  18.59491  34.62923  1      235
siesta:     53.67887  18.59491  34.62923  1      236
siesta:     61.73070  18.59491  34.62923  1      237
siesta:     69.78253  18.59491  34.62923  1      238
siesta:     17.44563  20.91927  34.62923  1      239
siesta:     25.49746  20.91927  34.62923  1      240
siesta:     33.54929  20.91927  34.62923  1      241
siesta:     41.60112  20.91927  34.62923  1      242
siesta:     49.65295  20.91927  34.62923  1      243
siesta:     57.70478  20.91927  34.62923  1      244
siesta:     65.75661  20.91927  34.62923  1      245
siesta:     73.80844  20.91927  34.62923  1      246
siesta:     21.47155  23.24363  34.62923  1      247
siesta:     29.52338  23.24363  34.62923  1      248
siesta:     37.57521  23.24363  34.62923  1      249
siesta:     45.62704  23.24363  34.62923  1      250
siesta:     53.67887  23.24363  34.62923  1      251
siesta:     61.73070  23.24363  34.62923  1      252
siesta:     69.78253  23.24363  34.62923  1      253
siesta:     17.44563  25.56799  34.62923  1      254
siesta:     25.49746  25.56799  34.62923  1      255
siesta:     33.54929  25.56799  34.62923  1      256
siesta:     41.60112  25.56799  34.62923  1      257
siesta:     49.65295  25.56799  34.62923  1      258
siesta:     57.70478  25.56799  34.62923  1      259
siesta:     65.75661  25.56799  34.62923  1      260
siesta:     73.80844  25.56799  34.62923  1      261
siesta:     21.47155  27.89236  34.62923  1      262
siesta:     29.52338  27.89236  34.62923  1      263
siesta:     37.57521  27.89236  34.62923  1      264
siesta:     45.62704  27.89236  34.62923  1      265
siesta:     53.67887  27.89236  34.62923  1      266
siesta:     61.73070  27.89236  34.62923  1      267
siesta:     69.78253  27.89236  34.62923  1      268
siesta:     77.83436  27.89236  34.62923  1      269
siesta:     25.49746  30.21672  34.62923  1      270
siesta:     33.54929  30.21672  34.62923  1      271
siesta:     41.60112  30.21672  34.62923  1      272
siesta:     49.65295  30.21672  34.62923  1      273
siesta:     57.70478  30.21672  34.62923  1      274
siesta:     65.75661  30.21672  34.62923  1      275
siesta:     73.80844  30.21672  34.62923  1      276
siesta:     21.47155  32.54108  34.62923  1      277
siesta:     29.52338  32.54108  34.62923  1      278
siesta:     37.57521  32.54108  34.62923  1      279
siesta:     45.62704  32.54108  34.62923  1      280
siesta:     53.67887  32.54108  34.62923  1      281
siesta:     61.73070  32.54108  34.62923  1      282
siesta:     69.78253  32.54108  34.62923  1      283
siesta:     77.83436  32.54108  34.62923  1      284
siesta:     25.49746  34.86545  34.62923  1      285
siesta:     33.54929  34.86545  34.62923  1      286
siesta:     41.60112  34.86545  34.62923  1      287
siesta:     49.65295  34.86545  34.62923  1      288
siesta:     57.70478  34.86545  34.62923  1      289
siesta:     65.75661  34.86545  34.62923  1      290
siesta:     73.80844  34.86545  34.62923  1      291
siesta:     81.86027  34.86545  34.62923  1      292
siesta:     29.52338  37.18981  34.62923  1      293
siesta:     37.57521  37.18981  34.62923  1      294
siesta:     45.62704  37.18981  34.62923  1      295
siesta:     53.67887  37.18981  34.62923  1      296
siesta:     61.73070  37.18981  34.62923  1      297
siesta:     69.78253  37.18981  34.62923  1      298
siesta:     77.83436  37.18981  34.62923  1      299
siesta:     25.49746  39.51417  34.62923  1      300
siesta:     33.54929  39.51417  34.62923  1      301
siesta:     41.60112  39.51417  34.62923  1      302
siesta:     49.65295  39.51417  34.62923  1      303
siesta:     57.70478  39.51417  34.62923  1      304
siesta:     65.75661  39.51417  34.62923  1      305
siesta:     73.80844  39.51417  34.62923  1      306
siesta:     81.86027  39.51417  34.62923  1      307
siesta:     29.52338  41.83854  34.62923  1      308
siesta:     37.57521  41.83854  34.62923  1      309
siesta:     45.62704  41.83854  34.62923  1      310
siesta:     53.67887  41.83854  34.62923  1      311
siesta:     61.73070  41.83854  34.62923  1      312
siesta:     69.78253  41.83854  34.62923  1      313
siesta:     77.83436  41.83854  34.62923  1      314
siesta:     85.88619  41.83854  34.62923  1      315
siesta:     33.54929  44.16290  34.62923  1      316
siesta:     41.60112  44.16290  34.62923  1      317
siesta:     49.65295  44.16290  34.62923  1      318
siesta:     57.70478  44.16290  34.62923  1      319
siesta:     65.75661  44.16290  34.62923  1      320
siesta:     73.80844  44.16290  34.62923  1      321
siesta:     81.86027  44.16290  34.62923  1      322
siesta:     29.52338  46.48726  34.62923  1      323
siesta:     37.57521  46.48726  34.62923  1      324
siesta:     45.62704  46.48726  34.62923  1      325
siesta:     53.67887  46.48726  34.62923  1      326
siesta:     61.73070  46.48726  34.62923  1      327
siesta:     69.78253  46.48726  34.62923  1      328
siesta:     77.83436  46.48726  34.62923  1      329
siesta:     85.88619  46.48726  34.62923  1      330
siesta:     33.54929  48.81163  34.62923  1      331
siesta:     41.60112  48.81163  34.62923  1      332
siesta:     49.65295  48.81163  34.62923  1      333
siesta:     57.70478  48.81163  34.62923  1      334
siesta:     65.75661  48.81163  34.62923  1      335
siesta:     73.80844  48.81163  34.62923  1      336
siesta:     81.86027  48.81163  34.62923  1      337
siesta:     89.91210  48.81163  34.62923  1      338
siesta:      6.86867   1.80173  40.95981  1      339
siesta:     14.89668   1.18281  40.95981  1      340
siesta:     22.92469   0.56390  40.95981  1      341
siesta:     30.95270  -0.05501  40.95981  1      342
siesta:     38.98070  -0.67393  40.95981  1      343
siesta:     47.00871  -1.29284  40.95981  1      344
siesta:     55.03672  -1.91175  40.95981  1      345
siesta:      3.03333   4.42867  40.95981  1      346
siesta:     11.06134   3.80975  40.95981  1      347
siesta:     19.08935   3.19084  40.95981  1      348
siesta:     27.11736   2.57193  40.95981  1      349
siesta:     35.14536   1.95302  40.95981  1      350
siesta:     43.17337   1.33410  40.95981  1      351
siesta:     51.20138   0.71519  40.95981  1      352
siesta:     59.22939   0.09628  40.95981  1      353
siesta:      7.22600   6.43670  40.95981  1      354
siesta:     15.25401   5.81778  40.95981  1      355
siesta:     23.28202   5.19887  40.95981  1      356
siesta:     31.31003   4.57996  40.95981  1      357
siesta:     39.33803   3.96104  40.95981  1      358
siesta:     47.36604   3.34213  40.95981  1      359
siesta:     55.39405   2.72322  40.95981  1      360
siesta:     11.41867   8.44473  40.95981  1      361
siesta:     19.44668   7.82581  40.95981  1      362
siesta:     27.47469   7.20690  40.95981  1      363
siesta:     35.50269   6.58799  40.95981  1      364
siesta:     43.53070   5.96907  40.95981  1      365
siesta:     51.55871   5.35016  40.95981  1      366
siesta:     59.58672   4.73125  40.95981  1      367
siesta:      7.58333  11.07167  40.95981  1      368
siesta:     15.61134  10.45276  40.95981  1      369
siesta:     23.63935   9.83384  40.95981  1      370
siesta:     31.66736   9.21493  40.95981  1      371
siesta:     39.69536   8.59602  40.95981  1      372
siesta:     47.72337   7.97710  40.95981  1      373
siesta:     55.75138   7.35819  40.95981  1      374
siesta:     63.77939   6.73928  40.95981  1      375
siesta:     11.77600  13.07970  40.95981  1      376
siesta:     19.80401  12.46079  40.95981  1      377
siesta:     27.83202  11.84187  40.95981  1      378
siesta:     35.86002  11.22296  40.95981  1      379
siesta:     43.88803  10.60405  40.95981  1      380
siesta:     51.91604   9.98513  40.95981  1      381
siesta:     59.94405   9.36622  40.95981  1      382
siesta:     15.96867  15.08773  40.95981  1      383
siesta:     23.99668  14.46882  40.95981  1      384
siesta:     32.02469  13.84990  40.95981  1      385
siesta:     40.05269  13.23099  40.95981  1      386
siesta:     48.08070  12.61208  40.95981  1      387
siesta:     56.10871  11.99316  40.95981  1      388
siesta:     64.13672  11.37425  40.95981  1      389
siesta:     12.13333  17.71467  40.95981  1      390
siesta:     20.16134  17.09576  40.95981  1      391
siesta:     28.18935  16.47685  40.95981  1      392
siesta:     36.21735  15.85793  40.95981  1      393
siesta:     44.24536  15.23902  40.95981  1      394
siesta:     52.27337  14.62011  40.95981  1      395
siesta:     60.30138  14.00119  40.95981  1      396
siesta:     68.32939  13.38228  40.95981  1      397
siesta:     16.32600  19.72270  40.95981  1      398
siesta:     24.35401  19.10379  40.95981  1      399
siesta:     32.38201  18.48488  40.95981  1      400
siesta:     40.41002  17.86596  40.95981  1      401
siesta:     48.43803  17.24705  40.95981  1      402
siesta:     56.46604  16.62814  40.95981  1      403
siesta:     64.49405  16.00922  40.95981  1      404
siesta:     20.51867  21.73073  40.95981  1      405
siesta:     28.54668  21.11182  40.95981  1      406
siesta:     36.57468  20.49291  40.95981  1      407
siesta:     44.60269  19.87399  40.95981  1      408
siesta:     52.63070  19.25508  40.95981  1      409
siesta:     60.65871  18.63617  40.95981  1      410
siesta:     68.68672  18.01725  40.95981  1      411
siesta:     16.68333  24.35768  40.95981  1      412
siesta:     24.71134  23.73876  40.95981  1      413
siesta:     32.73934  23.11985  40.95981  1      414
siesta:     40.76735  22.50094  40.95981  1      415
siesta:     48.79536  21.88202  40.95981  1      416
siesta:     56.82337  21.26311  40.95981  1      417
siesta:     64.85138  20.64420  40.95981  1      418
siesta:     72.87939  20.02528  40.95981  1      419
siesta:     20.87600  26.36570  40.95981  1      420
siesta:     28.90401  25.74679  40.95981  1      421
siesta:     36.93201  25.12788  40.95981  1      422
siesta:     44.96002  24.50897  40.95981  1      423
siesta:     52.98803  23.89005  40.95981  1      424
siesta:     61.01604  23.27114  40.95981  1      425
siesta:     69.04405  22.65223  40.95981  1      426
siesta:     25.06867  28.37373  40.95981  1      427
siesta:     33.09667  27.75482  40.95981  1      428
siesta:     41.12468  27.13591  40.95981  1      429
siesta:     49.15269  26.51699  40.95981  1      430
siesta:     57.18070  25.89808  40.95981  1      431
siesta:     65.20871  25.27917  40.95981  1      432
siesta:     73.23671  24.66026  40.95981  1      433
siesta:     21.23333  31.00068  40.95981  1      434
siesta:     29.26134  30.38176  40.95981  1      435
siesta:     37.28934  29.76285  40.95981  1      436
siesta:     45.31735  29.14394  40.95981  1      437
siesta:     53.34536  28.52502  40.95981  1      438
siesta:     61.37337  27.90611  40.95981  1      439
siesta:     69.40138  27.28720  40.95981  1      440
siesta:     77.42938  26.66828  40.95981  1      441
siesta:     25.42600  33.00871  40.95981  1      442
siesta:     33.45400  32.38979  40.95981  1      443
siesta:     41.48201  31.77088  40.95981  1      444
siesta:     49.51002  31.15197  40.95981  1      445
siesta:     57.53803  30.53305  40.95981  1      446
siesta:     65.56604  29.91414  40.95981  1      447
siesta:     73.59404  29.29523  40.95981  1      448
siesta:     29.61866  35.01674  40.95981  1      449
siesta:     37.64667  34.39782  40.95981  1      450
siesta:     45.67468  33.77891  40.95981  1      451
siesta:     53.70269  33.16000  40.95981  1      452
siesta:     61.73070  32.54108  40.95981  1      453
siesta:     69.75871  31.92217  40.95981  1      454
siesta:     77.78671  31.30326  40.95981  1      455
siesta:     25.78333  37.64368  40.95981  1      456
siesta:     33.81133  37.02477  40.95981  1      457
siesta:     41.83934  36.40585  40.95981  1      458
siesta:     49.86735  35.78694  40.95981  1      459
siesta:     57.89536  35.16803  40.95981  1      460
siesta:     65.92337  34.54911  40.95981  1      461
siesta:     73.95137  33.93020  40.95981  1      462
siesta:     81.97938  33.31129  40.95981  1      463
siesta:     29.97599  39.65171  40.95981  1      464
siesta:     38.00400  39.03280  40.95981  1      465
siesta:     46.03201  38.41388  40.95981  1      466
siesta:     54.06002  37.79497  40.95981  1      467
siesta:     62.08803  37.17606  40.95981  1      468
siesta:     70.11604  36.55714  40.95981  1      469
siesta:     78.14404  35.93823  40.95981  1      470
siesta:     34.16866  41.65974  40.95981  1      471
siesta:     42.19667  41.04083  40.95981  1      472
siesta:     50.22468  40.42191  40.95981  1      473
siesta:     58.25269  39.80300  40.95981  1      474
siesta:     66.28070  39.18409  40.95981  1      475
siesta:     74.30870  38.56517  40.95981  1      476
siesta:     82.33671  37.94626  40.95981  1      477
siesta:     30.33332  44.28668  40.95981  1      478
siesta:     38.36133  43.66777  40.95981  1      479
siesta:     46.38934  43.04886  40.95981  1      480
siesta:     54.41735  42.42994  40.95981  1      481
siesta:     62.44536  41.81103  40.95981  1      482
siesta:     70.47336  41.19212  40.95981  1      483
siesta:     78.50137  40.57320  40.95981  1      484
siesta:     86.52938  39.95429  40.95981  1      485
siesta:     34.52599  46.29471  40.95981  1      486
siesta:     42.55400  45.67580  40.95981  1      487
siesta:     50.58201  45.05689  40.95981  1      488
siesta:     58.61002  44.43797  40.95981  1      489
siesta:     66.63803  43.81906  40.95981  1      490
siesta:     74.66603  43.20015  40.95981  1      491
siesta:     82.69404  42.58123  40.95981  1      492
siesta:     38.71866  48.30274  40.95981  1      493
siesta:     46.74667  47.68383  40.95981  1      494
siesta:     54.77468  47.06492  40.95981  1      495
siesta:     62.80269  46.44600  40.95981  1      496
siesta:     70.83069  45.82709  40.95981  1      497
siesta:     78.85870  45.20818  40.95981  1      498
siesta:     86.88671  44.58926  40.95981  1      499
siesta:     34.88332  50.92968  40.95981  1      500
siesta:     42.91133  50.31077  40.95981  1      501
siesta:     50.93934  49.69186  40.95981  1      502
siesta:     58.96735  49.07294  40.95981  1      503
siesta:     66.99536  48.45403  40.95981  1      504
siesta:     75.02336  47.83512  40.95981  1      505
siesta:     83.05137  47.21620  40.95981  1      506
siesta:     91.07938  46.59729  40.95981  1      507
siesta:      1.51667   2.21433  40.95981  1      508
siesta:      9.54467   1.59542  40.95981  1      509
siesta:     17.57268   0.97651  40.95981  1      510
siesta:     25.60069   0.35759  40.95981  1      511
siesta:     33.62870  -0.26132  40.95981  1      512
siesta:     41.65671  -0.88023  40.95981  1      513
siesta:     49.68471  -1.49915  40.95981  1      514
siesta:     57.71272  -2.11806  40.95981  1      515
siesta:      5.70934   4.22236  40.95981  1      516
siesta:     13.73734   3.60345  40.95981  1      517
siesta:     21.76535   2.98454  40.95981  1      518
siesta:     29.79336   2.36562  40.95981  1      519
siesta:     37.82137   1.74671  40.95981  1      520
siesta:     45.84938   1.12780  40.95981  1      521
siesta:     53.87738   0.50888  40.95981  1      522
siesta:      9.90200   6.23039  40.95981  1      523
siesta:     17.93001   5.61148  40.95981  1      524
siesta:     25.95802   4.99257  40.95981  1      525
siesta:     33.98603   4.37365  40.95981  1      526
siesta:     42.01404   3.75474  40.95981  1      527
siesta:     50.04204   3.13583  40.95981  1      528
siesta:     58.07005   2.51691  40.95981  1      529
siesta:      6.06666   8.85734  40.95981  1      530
siesta:     14.09467   8.23842  40.95981  1      531
siesta:     22.12268   7.61951  40.95981  1      532
siesta:     30.15069   7.00060  40.95981  1      533
siesta:     38.17870   6.38168  40.95981  1      534
siesta:     46.20671   5.76277  40.95981  1      535
siesta:     54.23471   5.14386  40.95981  1      536
siesta:     62.26272   4.52494  40.95981  1      537
siesta:     10.25933  10.86537  40.95981  1      538
siesta:     18.28734  10.24645  40.95981  1      539
siesta:     26.31535   9.62754  40.95981  1      540
siesta:     34.34336   9.00863  40.95981  1      541
siesta:     42.37137   8.38971  40.95981  1      542
siesta:     50.39937   7.77080  40.95981  1      543
siesta:     58.42738   7.15189  40.95981  1      544
siesta:     14.45200  12.87340  40.95981  1      545
siesta:     22.48001  12.25448  40.95981  1      546
siesta:     30.50802  11.63557  40.95981  1      547
siesta:     38.53603  11.01666  40.95981  1      548
siesta:     46.56404  10.39774  40.95981  1      549
siesta:     54.59204   9.77883  40.95981  1      550
siesta:     62.62005   9.15992  40.95981  1      551
siesta:     10.61666  15.50034  40.95981  1      552
siesta:     18.64467  14.88143  40.95981  1      553
siesta:     26.67268  14.26251  40.95981  1      554
siesta:     34.70069  13.64360  40.95981  1      555
siesta:     42.72870  13.02469  40.95981  1      556
siesta:     50.75670  12.40577  40.95981  1      557
siesta:     58.78471  11.78686  40.95981  1      558
siesta:     66.81272  11.16795  40.95981  1      559
siesta:     14.80933  17.50837  40.95981  1      560
siesta:     22.83734  16.88946  40.95981  1      561
siesta:     30.86535  16.27054  40.95981  1      562
siesta:     38.89336  15.65163  40.95981  1      563
siesta:     46.92136  15.03272  40.95981  1      564
siesta:     54.94937  14.41380  40.95981  1      565
siesta:     62.97738  13.79489  40.95981  1      566
siesta:     19.00200  19.51640  40.95981  1      567
siesta:     27.03001  18.89748  40.95981  1      568
siesta:     35.05802  18.27857  40.95981  1      569
siesta:     43.08603  17.65966  40.95981  1      570
siesta:     51.11403  17.04075  40.95981  1      571
siesta:     59.14204  16.42183  40.95981  1      572
siesta:     67.17005  15.80292  40.95981  1      573
siesta:     15.16666  22.14334  40.95981  1      574
siesta:     23.19467  21.52443  40.95981  1      575
siesta:     31.22268  20.90551  40.95981  1      576
siesta:     39.25069  20.28660  40.95981  1      577
siesta:     47.27869  19.66769  40.95981  1      578
siesta:     55.30670  19.04877  40.95981  1      579
siesta:     63.33471  18.42986  40.95981  1      580
siesta:     71.36272  17.81095  40.95981  1      581
siesta:     19.35933  24.15137  40.95981  1      582
siesta:     27.38734  23.53246  40.95981  1      583
siesta:     35.41535  22.91354  40.95981  1      584
siesta:     43.44336  22.29463  40.95981  1      585
siesta:     51.47136  21.67572  40.95981  1      586
siesta:     59.49937  21.05680  40.95981  1      587
siesta:     67.52738  20.43789  40.95981  1      588
siesta:     23.55200  26.15940  40.95981  1      589
siesta:     31.58001  25.54049  40.95981  1      590
siesta:     39.60802  24.92157  40.95981  1      591
siesta:     47.63602  24.30266  40.95981  1      592
siesta:     55.66403  23.68375  40.95981  1      593
siesta:     63.69204  23.06483  40.95981  1      594
siesta:     71.72005  22.44592  40.95981  1      595
siesta:     19.71666  28.78634  40.95981  1      596
siesta:     27.74467  28.16743  40.95981  1      597
siesta:     35.77268  27.54852  40.95981  1      598
siesta:     43.80069  26.92960  40.95981  1      599
siesta:     51.82869  26.31069  40.95981  1      600
siesta:     59.85670  25.69178  40.95981  1      601
siesta:     67.88471  25.07286  40.95981  1      602
siesta:     75.91272  24.45395  40.95981  1      603
siesta:     23.90933  30.79437  40.95981  1      604
siesta:     31.93734  30.17546  40.95981  1      605
siesta:     39.96535  29.55655  40.95981  1      606
siesta:     47.99335  28.93763  40.95981  1      607
siesta:     56.02136  28.31872  40.95981  1      608
siesta:     64.04937  27.69981  40.95981  1      609
siesta:     72.07738  27.08089  40.95981  1      610
siesta:     28.10200  32.80240  40.95981  1      611
siesta:     36.13001  32.18349  40.95981  1      612
siesta:     44.15801  31.56458  40.95981  1      613
siesta:     52.18602  30.94566  40.95981  1      614
siesta:     60.21403  30.32675  40.95981  1      615
siesta:     68.24204  29.70784  40.95981  1      616
siesta:     76.27005  29.08892  40.95981  1      617
siesta:     24.26666  35.42935  40.95981  1      618
siesta:     32.29467  34.81043  40.95981  1      619
siesta:     40.32268  34.19152  40.95981  1      620
siesta:     48.35068  33.57261  40.95981  1      621
siesta:     56.37869  32.95369  40.95981  1      622
siesta:     64.40670  32.33478  40.95981  1      623
siesta:     72.43471  31.71587  40.95981  1      624
siesta:     80.46272  31.09695  40.95981  1      625
siesta:     28.45933  37.43738  40.95981  1      626
siesta:     36.48734  36.81846  40.95981  1      627
siesta:     44.51534  36.19955  40.95981  1      628
siesta:     52.54335  35.58064  40.95981  1      629
siesta:     60.57136  34.96172  40.95981  1      630
siesta:     68.59937  34.34281  40.95981  1      631
siesta:     76.62738  33.72390  40.95981  1      632
siesta:     32.65200  39.44541  40.95981  1      633
siesta:     40.68001  38.82649  40.95981  1      634
siesta:     48.70801  38.20758  40.95981  1      635
siesta:     56.73602  37.58867  40.95981  1      636
siesta:     64.76403  36.96975  40.95981  1      637
siesta:     72.79204  36.35084  40.95981  1      638
siesta:     80.82005  35.73193  40.95981  1      639
siesta:     28.81666  42.07235  40.95981  1      640
siesta:     36.84467  41.45343  40.95981  1      641
siesta:     44.87267  40.83452  40.95981  1      642
siesta:     52.90068  40.21561  40.95981  1      643
siesta:     60.92869  39.59670  40.95981  1      644
siesta:     68.95670  38.97778  40.95981  1      645
siesta:     76.98471  38.35887  40.95981  1      646
siesta:     85.01271  37.73996  40.95981  1      647
siesta:     33.00933  44.08038  40.95981  1      648
siesta:     41.03734  43.46146  40.95981  1      649
siesta:     49.06534  42.84255  40.95981  1      650
siesta:     57.09335  42.22364  40.95981  1      651
siesta:     65.12136  41.60472  40.95981  1      652
siesta:     73.14937  40.98581  40.95981  1      653
siesta:     81.17738  40.36690  40.95981  1      654
siesta:     37.20200  46.08841  40.95981  1      655
siesta:     45.23000  45.46949  40.95981  1      656
siesta:     53.25801  44.85058  40.95981  1      657
siesta:     61.28602  44.23167  40.95981  1      658
siesta:     69.31403  43.61275  40.95981  1      659
siesta:     77.34204  42.99384  40.95981  1      660
siesta:     85.37004  42.37493  40.95981  1      661
siesta:     33.36666  48.71535  40.95981  1      662
siesta:     41.39466  48.09644  40.95981  1      663
siesta:     49.42267  47.47752  40.95981  1      664
siesta:     57.45068  46.85861  40.95981  1      665
siesta:     65.47869  46.23970  40.95981  1      666
siesta:     73.50670  45.62078  40.95981  1      667
siesta:     81.53471  45.00187  40.95981  1      668
siesta:     89.56271  44.38296  40.95981  1      669
siesta:     37.55933  50.72338  40.95981  1      670
siesta:     45.58733  50.10447  40.95981  1      671
siesta:     53.61534  49.48555  40.95981  1      672
siesta:     61.64335  48.86664  40.95981  1      673
siesta:     69.67136  48.24773  40.95981  1      674
siesta:     77.69937  47.62881  40.95981  1      675
siesta:     85.72737  47.00990  40.95981  1      676

siesta: System type = slab      

initatomlists: Number of atoms, orbitals, and projectors:    676  6084  5408

siesta: ******************** Simulation parameters ****************************
siesta:
siesta: The following are some of the parameters of the simulation.
siesta: A complete list of the parameters used, including default values,
siesta: can be found in file out.fdf
siesta:
redata: Spin configuration                          = none
redata: Number of spin components                   = 1
redata: Time-Reversal Symmetry                      = T
redata: Spin spiral                                 = F
redata: Long output                                 =   F
redata: Number of Atomic Species                    =        1
redata: Charge density info will appear in .RHO file
redata: Write Mulliken Pop.                         = NO
redata: Matel table size (NRTAB)                    =     1024
redata: Mesh Cutoff                                 =   300.0000 Ry
redata: Net charge of the system                    =     0.0000 |e|
redata: Min. number of SCF Iter                     =        3
redata: Max. number of SCF Iter                     =      300
redata: SCF convergence failure will abort job
redata: SCF mix quantity                            = Hamiltonian
redata: Mix DM or H after convergence               =   F
redata: Recompute H after scf cycle                 =   F
redata: Mix DM in first SCF step                    =   T
redata: Write Pulay info on disk                    =   F
redata: New DM Occupancy tolerance                  = 0.000000000001
redata: No kicks to SCF
redata: DM Mixing Weight for Kicks                  =     0.5000
redata: Require Harris convergence for SCF          =   F
redata: Harris energy tolerance for SCF             =     0.000100 eV
redata: Require DM convergence for SCF              =   T
redata: DM tolerance for SCF                        =     0.000100
redata: Require EDM convergence for SCF             =   F
redata: EDM tolerance for SCF                       =     0.001000 eV
redata: Require H convergence for SCF               =   T
redata: Hamiltonian tolerance for SCF               =     0.001000 eV
redata: Require (free) Energy convergence for SCF   =   F
redata: (free) Energy tolerance for SCF             =     0.000100 eV
redata: Using DFT-D3 dispersion                     =   T
redata: Using Saved Data (generic)                  =   F
redata: Use continuation files for DM               =   T
redata: Neglect nonoverlap interactions             =   F
redata: Method of Calculation                       = Diagonalization
redata: Electronic Temperature                      =   299.9863 K
redata: Fix the spin of the system                  =   F
redata: Max. number of TDED Iter                    =        1
redata: Number of TDED substeps                     =        3
redata: Dynamics option                             = CG coord. optimization
redata: Variable cell                               =   F
redata: Use continuation files for CG               =   F
redata: Max atomic displ per move                   =     0.2646 Ang
redata: Maximum number of optimization moves        =      200
redata: Force tolerance                             =     0.0100 eV/Ang
mix.SCF: Pulay mixing                            = Pulay
mix.SCF:    Variant                              = stable
mix.SCF:    History steps                        = 12
mix.SCF:    Linear mixing weight                 =     0.100000
mix.SCF:    Mixing weight                        =     0.100000
mix.SCF:    SVD condition                        = 0.1000E-07
redata: Save all siesta data in one NC              =   F
redata: ***********************************************************************

%block SCF.Mixers
  Pulay
%endblock SCF.Mixers

%block SCF.Mixer.Pulay
  # Mixing method
  method pulay
  variant stable

  # Mixing options
  weight 0.1000
  weight.linear 0.1000
  history 12
%endblock SCF.Mixer.Pulay
 
DFT-D3: loading default parameters for functional PBE.
DM_history_depth set to one: no extrapolation allowed by default for geometry relaxation
Size of DM history Fstack: 1
Total number of electrons:  2704.000000
Total ionic charge:  2704.000000

* ProcessorY, Blocksize:    8  64


* Orbital distribution balance (max,min):   128    64

 Kpoints in:            1 . Kpoints trimmed:            1

siesta: k-grid: Number of k-points = 1
siesta: k-points from Monkhorst-Pack grid
siesta: k-cutoff (effective) =    15.990 Ang
siesta: k-point supercell and displacements
siesta: k-grid:     1     0     0      0.000
siesta: k-grid:     0     1     0      0.000
siesta: k-grid:     0     0     1      0.000
 
diag: Algorithm                                     = D&C
diag: Parallel over k                               =   F
diag: Use parallel 2D distribution                  =   T
diag: Parallel block-size                           = 64
diag: Parallel distribution                         =     8 x     8
diag: Used triangular part                          = Lower
diag: Absolute tolerance                            =  0.100E-15
diag: Orthogonalization factor                      =  0.100E-05
diag: Memory factor                                 =  1.0000
 
siesta: Constraint v=[  0.00000,  0.00000,  1.00000] (676): center-dir
  [ 1 -- 676 ]
 
 
ts: **************************************************************
ts: Save H and S matrices                           =    F
ts: Save DM and EDM matrices                        =    F
ts: Only save the overlap matrix S                  =    F
ts: **************************************************************
 
************************ Begin: TS CHECKS AND WARNINGS ************************
************************ End: TS CHECKS AND WARNINGS **************************


                     ====================================
                        Begin CG opt. move =      0
                     ====================================

outcell: Unit cell vectors (Ang):
       31.956337   -1.230000    0.000000
       17.043380   27.060000    0.000000
        0.000000    0.000000   40.000000

outcell: Cell vector modules (Ang)   :   31.980000   31.980000   40.000000
outcell: Cell angles (23,13,12) (deg):     90.0000     90.0000     60.0000
outcell: Cell volume (Ang**3)        :  35428.0739
<dSpData1D:S at geom step 0
  <sparsity:sparsity for geom step 0
    nrows_g=6084 nrows=128 sparsity=.0033 nnzs=123175, refcount: 7>
  <dData1D:(new from dSpData1D) n=123175, refcount: 1>
refcount: 1>
new_DM -- step:     1
Initializing Density Matrix...
 
Attempting to read DM from file... Failed...
DM filled with atomic data:
<dSpData2D:DM initialized from atoms
  <sparsity:sparsity for geom step 0
    nrows_g=6084 nrows=128 sparsity=.0033 nnzs=123175, refcount: 8>
  <dData2D:DM n=123175 m=1, refcount: 1>
refcount: 1>
No. of atoms with KB's overlaping orbs in proc 0. Max # of overlaps:     291     237

InitMesh: MESH = 300 x 300 x 432 = 38880000
InitMesh: Mesh cutoff (required, used) =   300.000   322.366 Ry
New grid distribution [1]: sub = 2
New grid distribution [2]: sub = 2
New grid distribution [3]: sub = 2
Setting up quadratic distribution...

stepf: Fermi-Dirac step function

siesta: Program's energy decomposition (eV):
siesta: Ebs     =    -39583.535414
siesta: Eions   =    190741.314426
siesta: Ena     =     42118.219669
siesta: Ekin    =     74522.371245
siesta: Enl     =     -3357.589493
siesta: Eso     =         0.000000
siesta: Edftu   =         0.000000
siesta: DEna    =      5707.765572
siesta: DUscf   =       363.933023
siesta: DUext   =         0.000000
siesta: Ex      =    -35641.140483
siesta: Ec      =     -3439.120239
siesta: Exc     =    -39080.260722
siesta: EbV     =         0.000000
siesta: eta*DQ  =         0.000000
siesta: Emadel  =         0.000000
siesta: Emeta   =         0.000000
siesta: Emolmec =         0.000000
siesta: Ekinion =         0.000000
siesta: Eharris =   -113139.764347
siesta: Etot    =   -110466.875132
siesta: FreeEng =   -110466.875132

        iscf     Eharris(eV)        E_KS(eV)     FreeEng(eV)     dDmax    Ef(eV) dHmax(eV)
   scf:    1  -113139.764347  -110466.875132  -110466.875132  1.203694 -1.367038  4.774960
timer: Routine,Calls,Time,% = IterSCF        1       6.523  46.54
   scf:    2  -110496.469749  -110481.876203  -110481.876203  0.008903 -1.742499  4.007708
   scf:    3  -110550.100307  -110520.652304  -110520.652304  0.046879 -3.697178  0.330377
   scf:    4  -110522.551887  -110521.747900  -110521.747900  0.008021 -3.971344  0.145987
   scf:    5  -110521.798764  -110521.823796  -110521.823796  0.001217 -3.901179  0.084167
   scf:    6  -110521.785137  -110521.821227  -110521.821227  0.001275 -3.970993  0.084347
   scf:    7  -110521.843330  -110521.839722  -110521.839722  0.001055 -3.940313  0.020090
   scf:    8  -110521.840589  -110521.840639  -110521.840639  0.000198 -3.950401  0.004392
   scf:    9  -110521.840642  -110521.840672  -110521.840672  0.000066 -3.951087  0.004178
   scf:   10  -110521.840750  -110521.840719  -110521.840719  0.000065 -3.948522  0.001040
   scf:   11  -110521.840719  -110521.840719  -110521.840719  0.000013 -3.949064  0.000123

SCF Convergence by DM+H criterion
max |DM_out - DM_in|         :     0.0000134012
max |H_out - H_in|      (eV) :     0.0001228797
SCF cycle converged after 11 iterations

Using DM_out to compute the final energy and forces
No. of atoms with KB's overlaping orbs in proc 0. Max # of overlaps:     291     237
System symmetry is of type slab but no DFTD3.Periodic list was found. Attempting to guess symmetry for D3.
Could not guess the right amount of periodicity directions for D3.
Enabling periodicity on all directions.

siesta: E_KS(eV) =          -110590.1465

siesta: E_KS - E_eggbox =   -110590.1465

siesta: Atomic forces (eV/Ang):
----------------------------------------
   Tot   -0.000000   -0.000000   -0.000000
----------------------------------------
   Max    0.050346
   Res    0.016518    sqrt( Sum f_i^2 / 3N )
----------------------------------------
   Max    0.050346    constrained

Stress tensor Voigt[x,y,z,yz,xz,xy] (kbar):      -25.75      -25.75       -5.41       -0.00       -0.00        0.00
(Free)E + p*V (eV/cell)  -110170.6887
Target enthalpy (eV/cell)  -110590.1465

                     ====================================
                        Begin CG opt. move =      1
                     ====================================

outcell: Unit cell vectors (Ang):
       31.956337   -1.230000    0.000000
       17.043380   27.060000    0.000000
        0.000000    0.000000   40.000000

outcell: Cell vector modules (Ang)   :   31.980000   31.980000   40.000000
outcell: Cell angles (23,13,12) (deg):     90.0000     90.0000     60.0000
outcell: Cell volume (Ang**3)        :  35428.0739
<dSpData1D:S at geom step 1
  <sparsity:sparsity for geom step 1
    nrows_g=6084 nrows=128 sparsity=.0033 nnzs=122933, refcount: 7>
  <dData1D:(new from dSpData1D) n=122933, refcount: 1>
refcount: 1>
new_DM -- step:     2
Re-using DM from previous geometries...
Number of DMs in history: 1
 DM extrapolation coefficients: 
1   1.00000
New DM after history re-use:
<dSpData2D:SpM extrapolated using coords
  <sparsity:sparsity for geom step 1
    nrows_g=6084 nrows=128 sparsity=.0033 nnzs=122933, refcount: 9>
  <dData2D:(temp array for extrapolation) n=122933 m=1, refcount: 1>
refcount: 1>
No. of atoms with KB's overlaping orbs in proc 0. Max # of overlaps:     289     234

InitMesh: MESH = 300 x 300 x 432 = 38880000
InitMesh: Mesh cutoff (required, used) =   300.000   322.366 Ry
New grid distribution [1]: sub = 2
New grid distribution [2]: sub = 2
New grid distribution [3]: sub = 2
Setting up quadratic distribution...

        iscf     Eharris(eV)        E_KS(eV)     FreeEng(eV)     dDmax    Ef(eV) dHmax(eV)
   scf:    1  -110591.340475  -110590.431095  -110590.431095  0.004228 -3.949509  0.108389
   scf:    2  -110590.005510  -110590.297548  -110590.297548  0.002782 -3.946919  0.736209
   scf:    3  -110590.451442  -110590.434704  -110590.434704  0.002385 -3.949068  0.008466
   scf:    4  -110590.435489  -110590.435127  -110590.435127  0.000101 -3.948811  0.004459
   scf:    5  -110590.435378  -110590.435258  -110590.435258  0.000066 -3.949074  0.002063
   scf:    6  -110590.435329  -110590.435298  -110590.435298  0.000056 -3.949326  0.000420

SCF Convergence by DM+H criterion
max |DM_out - DM_in|         :     0.0000564939
max |H_out - H_in|      (eV) :     0.0004202194
SCF cycle converged after 6 iterations

Using DM_out to compute the final energy and forces
No. of atoms with KB's overlaping orbs in proc 0. Max # of overlaps:     289     234
System symmetry is of type slab but no DFTD3.Periodic list was found. Attempting to guess symmetry for D3.
Could not guess the right amount of periodicity directions for D3.
Enabling periodicity on all directions.

siesta: E_KS(eV) =          -110590.1983

siesta: Atomic forces (eV/Ang):
----------------------------------------
   Tot   -0.000003    0.000003    0.000000
----------------------------------------
   Max    0.361307
   Res    0.121621    sqrt( Sum f_i^2 / 3N )
----------------------------------------
   Max    0.361307    constrained

Stress tensor Voigt[x,y,z,yz,xz,xy] (kbar):      -25.78      -25.83       -5.22       -0.00        0.00        0.04
(Free)E + p*V (eV/cell)  -110171.2474
Target enthalpy (eV/cell)  -110590.1983

                     ====================================
                        Begin CG opt. move =      2
                     ====================================

outcell: Unit cell vectors (Ang):
       31.956337   -1.230000    0.000000
       17.043380   27.060000    0.000000
        0.000000    0.000000   40.000000

outcell: Cell vector modules (Ang)   :   31.980000   31.980000   40.000000
outcell: Cell angles (23,13,12) (deg):     90.0000     90.0000     60.0000
outcell: Cell volume (Ang**3)        :  35428.0739
<dSpData1D:S at geom step 2
  <sparsity:sparsity for geom step 2
    nrows_g=6084 nrows=128 sparsity=.0033 nnzs=123034, refcount: 7>
  <dData1D:(new from dSpData1D) n=123034, refcount: 1>
refcount: 1>
new_DM -- step:     3
Re-using DM from previous geometries...
Number of DMs in history: 1
 DM extrapolation coefficients: 
1   1.00000
New DM after history re-use:
<dSpData2D:SpM extrapolated using coords
  <sparsity:sparsity for geom step 2
    nrows_g=6084 nrows=128 sparsity=.0033 nnzs=123034, refcount: 9>
  <dData2D:(temp array for extrapolation) n=123034 m=1, refcount: 1>
refcount: 1>
No. of atoms with KB's overlaping orbs in proc 0. Max # of overlaps:     289     234

InitMesh: MESH = 300 x 300 x 432 = 38880000
InitMesh: Mesh cutoff (required, used) =   300.000   322.366 Ry
New grid distribution [1]: sub = 2
New grid distribution [2]: sub = 2
New grid distribution [3]: sub = 2
Setting up quadratic distribution...

        iscf     Eharris(eV)        E_KS(eV)     FreeEng(eV)     dDmax    Ef(eV) dHmax(eV)
   scf:    1  -110589.862270  -110590.137057  -110590.137057  0.001360 -3.949228  0.019916
   scf:    2  -110590.120196  -110590.131813  -110590.131813  0.000628 -3.950007  0.133129
   scf:    3  -110590.137862  -110590.137248  -110590.137248  0.000533 -3.949333  0.002744
   scf:    4  -110590.137330  -110590.137293  -110590.137293  0.000036 -3.949346  0.001358
   scf:    5  -110590.137321  -110590.137308  -110590.137308  0.000030 -3.949325  0.000349

SCF Convergence by DM+H criterion
max |DM_out - DM_in|         :     0.0000298228
max |H_out - H_in|      (eV) :     0.0003494031
SCF cycle converged after 5 iterations

Using DM_out to compute the final energy and forces
No. of atoms with KB's overlaping orbs in proc 0. Max # of overlaps:     289     234
System symmetry is of type slab but no DFTD3.Periodic list was found. Attempting to guess symmetry for D3.
Could not guess the right amount of periodicity directions for D3.
Enabling periodicity on all directions.

siesta: E_KS(eV) =          -110590.2132

siesta: Atomic forces (eV/Ang):
----------------------------------------
   Tot    0.000000    0.000002   -0.000000
----------------------------------------
   Max    0.242672
   Res    0.082415    sqrt( Sum f_i^2 / 3N )
----------------------------------------
   Max    0.242672    constrained

Stress tensor Voigt[x,y,z,yz,xz,xy] (kbar):      -25.77      -25.81       -5.28        0.00        0.00        0.03
(Free)E + p*V (eV/cell)  -110171.1114
Target enthalpy (eV/cell)  -110590.2132

cgvc: Finished line minimization    1.  Mean atomic displacement =    0.0131

                     ====================================
                        Begin CG opt. move =      3
                     ====================================

outcell: Unit cell vectors (Ang):
       31.956337   -1.230000    0.000000
       17.043380   27.060000    0.000000
        0.000000    0.000000   40.000000

outcell: Cell vector modules (Ang)   :   31.980000   31.980000   40.000000
outcell: Cell angles (23,13,12) (deg):     90.0000     90.0000     60.0000
outcell: Cell volume (Ang**3)        :  35428.0739
<dSpData1D:S at geom step 3
  <sparsity:sparsity for geom step 3
    nrows_g=6084 nrows=128 sparsity=.0033 nnzs=122814, refcount: 7>
  <dData1D:(new from dSpData1D) n=122814, refcount: 1>
refcount: 1>
new_DM -- step:     4
Re-using DM from previous geometries...
Number of DMs in history: 1
 DM extrapolation coefficients: 
1   1.00000
New DM after history re-use:
<dSpData2D:SpM extrapolated using coords
  <sparsity:sparsity for geom step 3
    nrows_g=6084 nrows=128 sparsity=.0033 nnzs=122814, refcount: 9>
  <dData2D:(temp array for extrapolation) n=122814 m=1, refcount: 1>
refcount: 1>
No. of atoms with KB's overlaping orbs in proc 0. Max # of overlaps:     288     233

InitMesh: MESH = 300 x 300 x 432 = 38880000
InitMesh: Mesh cutoff (required, used) =   300.000   322.366 Ry
New grid distribution [1]: sub = 2
New grid distribution [2]: sub = 2
New grid distribution [3]: sub = 2
Setting up quadratic distribution...

        iscf     Eharris(eV)        E_KS(eV)     FreeEng(eV)     dDmax    Ef(eV) dHmax(eV)
   scf:    1  -110591.115709  -110590.496391  -110590.496391  0.000627 -3.949421  0.006941
   scf:    2  -110590.494624  -110590.495904  -110590.495904  0.000318 -3.948395  0.036731
   scf:    3  -110590.496524  -110590.496476  -110590.496476  0.000258 -3.949237  0.001481
   scf:    4  -110590.496501  -110590.496490  -110590.496490  0.000014 -3.949145  0.000807

SCF Convergence by DM+H criterion
max |DM_out - DM_in|         :     0.0000138982
max |H_out - H_in|      (eV) :     0.0008067941
SCF cycle converged after 4 iterations

Using DM_out to compute the final energy and forces
No. of atoms with KB's overlaping orbs in proc 0. Max # of overlaps:     288     233
System symmetry is of type slab but no DFTD3.Periodic list was found. Attempting to guess symmetry for D3.
Could not guess the right amount of periodicity directions for D3.
Enabling periodicity on all directions.

siesta: E_KS(eV) =          -110590.3335

siesta: Atomic forces (eV/Ang):
----------------------------------------
   Tot    0.000000   -0.000001   -0.000006
----------------------------------------
   Max    0.204842
   Res    0.068939    sqrt( Sum f_i^2 / 3N )
----------------------------------------
   Max    0.204842    constrained

Stress tensor Voigt[x,y,z,yz,xz,xy] (kbar):      -25.80      -25.83       -5.16       -0.00       -0.00        0.02
(Free)E + p*V (eV/cell)  -110171.7249
Target enthalpy (eV/cell)  -110590.3335

                     ====================================
                        Begin CG opt. move =      4
                     ====================================

outcell: Unit cell vectors (Ang):
       31.956337   -1.230000    0.000000
       17.043380   27.060000    0.000000
        0.000000    0.000000   40.000000

outcell: Cell vector modules (Ang)   :   31.980000   31.980000   40.000000
outcell: Cell angles (23,13,12) (deg):     90.0000     90.0000     60.0000
outcell: Cell volume (Ang**3)        :  35428.0739
<dSpData1D:S at geom step 4
  <sparsity:sparsity for geom step 4
    nrows_g=6084 nrows=128 sparsity=.0033 nnzs=122436, refcount: 7>
  <dData1D:(new from dSpData1D) n=122436, refcount: 1>
refcount: 1>
new_DM -- step:     5
Re-using DM from previous geometries...
Number of DMs in history: 1
 DM extrapolation coefficients: 
1   1.00000
New DM after history re-use:
<dSpData2D:SpM extrapolated using coords
  <sparsity:sparsity for geom step 4
    nrows_g=6084 nrows=128 sparsity=.0033 nnzs=122436, refcount: 9>
  <dData2D:(temp array for extrapolation) n=122436 m=1, refcount: 1>
refcount: 1>
No. of atoms with KB's overlaping orbs in proc 0. Max # of overlaps:     285     231

InitMesh: MESH = 300 x 300 x 432 = 38880000
InitMesh: Mesh cutoff (required, used) =   300.000   322.366 Ry
New grid distribution [1]: sub = 2
New grid distribution [2]: sub = 2
New grid distribution [3]: sub = 2
Setting up quadratic distribution...

        iscf     Eharris(eV)        E_KS(eV)     FreeEng(eV)     dDmax    Ef(eV) dHmax(eV)
   scf:    1  -110591.649977  -110590.742906  -110590.742906  0.001001 -3.949998  0.008919
   scf:    2  -110590.735584  -110590.740760  -110590.740760  0.000349 -3.948144  0.051370
   scf:    3  -110590.743299  -110590.743114  -110590.743114  0.000292 -3.949663  0.002556
   scf:    4  -110590.743191  -110590.743159  -110590.743159  0.000030 -3.949527  0.001139
   scf:    5  -110590.743173  -110590.743166  -110590.743166  0.000008 -3.949684  0.000983

SCF Convergence by DM+H criterion
max |DM_out - DM_in|         :     0.0000077054
max |H_out - H_in|      (eV) :     0.0009829838
SCF cycle converged after 5 iterations

Using DM_out to compute the final energy and forces
No. of atoms with KB's overlaping orbs in proc 0. Max # of overlaps:     285     231
System symmetry is of type slab but no DFTD3.Periodic list was found. Attempting to guess symmetry for D3.
Could not guess the right amount of periodicity directions for D3.
Enabling periodicity on all directions.

siesta: E_KS(eV) =          -110590.4836

siesta: Atomic forces (eV/Ang):
----------------------------------------
   Tot   -0.000003    0.000003   -0.000023
----------------------------------------
   Max    0.144101
   Res    0.047791    sqrt( Sum f_i^2 / 3N )
----------------------------------------
   Max    0.144101    constrained

Stress tensor Voigt[x,y,z,yz,xz,xy] (kbar):      -25.85      -25.87       -4.98       -0.00        0.00        0.01
(Free)E + p*V (eV/cell)  -110172.5944
Target enthalpy (eV/cell)  -110590.4836

                     ====================================
                        Begin CG opt. move =      5
                     ====================================

outcell: Unit cell vectors (Ang):
       31.956337   -1.230000    0.000000
       17.043380   27.060000    0.000000
        0.000000    0.000000   40.000000

outcell: Cell vector modules (Ang)   :   31.980000   31.980000   40.000000
outcell: Cell angles (23,13,12) (deg):     90.0000     90.0000     60.0000
outcell: Cell volume (Ang**3)        :  35428.0739
<dSpData1D:S at geom step 5
  <sparsity:sparsity for geom step 5
    nrows_g=6084 nrows=128 sparsity=.0033 nnzs=122081, refcount: 7>
  <dData1D:(new from dSpData1D) n=122081, refcount: 1>
refcount: 1>
new_DM -- step:     6
Re-using DM from previous geometries...
Number of DMs in history: 1
 DM extrapolation coefficients: 
1   1.00000
New DM after history re-use:
<dSpData2D:SpM extrapolated using coords
  <sparsity:sparsity for geom step 5
    nrows_g=6084 nrows=128 sparsity=.0033 nnzs=122081, refcount: 9>
  <dData2D:(temp array for extrapolation) n=122081 m=1, refcount: 1>
refcount: 1>
No. of atoms with KB's overlaping orbs in proc 0. Max # of overlaps:     285     231

InitMesh: MESH = 300 x 300 x 432 = 38880000
InitMesh: Mesh cutoff (required, used) =   300.000   322.366 Ry
New grid distribution [1]: sub = 2
New grid distribution [2]: sub = 2
New grid distribution [3]: sub = 2
Setting up quadratic distribution...

        iscf     Eharris(eV)        E_KS(eV)     FreeEng(eV)     dDmax    Ef(eV) dHmax(eV)
   scf:    1  -110592.284315  -110591.032214  -110591.032214  0.001596 -3.950955  0.050865
   scf:    2  -110590.921337  -110590.997803  -110590.997803  0.000986 -3.948147  0.340805
   scf:    3  -110591.037615  -110591.033500  -110591.033500  0.000866 -3.950425  0.005017
   scf:    4  -110591.033776  -110591.033663  -110591.033663  0.000055 -3.950301  0.001880
   scf:    5  -110591.033712  -110591.033689  -110591.033689  0.000022 -3.950518  0.001361
   scf:    6  -110591.033706  -110591.033699  -110591.033699  0.000023 -3.950803  0.000407

SCF Convergence by DM+H criterion
max |DM_out - DM_in|         :     0.0000229156
max |H_out - H_in|      (eV) :     0.0004072086
SCF cycle converged after 6 iterations

Using DM_out to compute the final energy and forces
No. of atoms with KB's overlaping orbs in proc 0. Max # of overlaps:     285     231
System symmetry is of type slab but no DFTD3.Periodic list was found. Attempting to guess symmetry for D3.
Could not guess the right amount of periodicity directions for D3.
Enabling periodicity on all directions.

siesta: E_KS(eV) =          -110590.6227

siesta: Atomic forces (eV/Ang):
----------------------------------------
   Tot    0.000003    0.000002    0.000001
----------------------------------------
   Max    0.057498
   Res    0.020090    sqrt( Sum f_i^2 / 3N )
----------------------------------------
   Max    0.057498    constrained

Stress tensor Voigt[x,y,z,yz,xz,xy] (kbar):      -25.91      -25.91       -4.72        0.00        0.00        0.00
(Free)E + p*V (eV/cell)  -110173.8931
Target enthalpy (eV/cell)  -110590.6227

                     ====================================
                        Begin CG opt. move =      6
                     ====================================

outcell: Unit cell vectors (Ang):
       31.956337   -1.230000    0.000000
       17.043380   27.060000    0.000000
        0.000000    0.000000   40.000000

outcell: Cell vector modules (Ang)   :   31.980000   31.980000   40.000000
outcell: Cell angles (23,13,12) (deg):     90.0000     90.0000     60.0000
outcell: Cell volume (Ang**3)        :  35428.0739
<dSpData1D:S at geom step 6
  <sparsity:sparsity for geom step 6
    nrows_g=6084 nrows=128 sparsity=.0033 nnzs=123150, refcount: 7>
  <dData1D:(new from dSpData1D) n=123150, refcount: 1>
refcount: 1>
new_DM -- step:     7
Re-using DM from previous geometries...
Number of DMs in history: 1
 DM extrapolation coefficients: 
1   1.00000
New DM after history re-use:
<dSpData2D:SpM extrapolated using coords
  <sparsity:sparsity for geom step 6
    nrows_g=6084 nrows=128 sparsity=.0033 nnzs=123150, refcount: 9>
  <dData2D:(temp array for extrapolation) n=123150 m=1, refcount: 1>
refcount: 1>
No. of atoms with KB's overlaping orbs in proc 0. Max # of overlaps:     290     235

InitMesh: MESH = 300 x 300 x 432 = 38880000
InitMesh: Mesh cutoff (required, used) =   300.000   322.366 Ry
New grid distribution [1]: sub = 2
New grid distribution [2]: sub = 2
New grid distribution [3]: sub = 2
Setting up quadratic distribution...

        iscf     Eharris(eV)        E_KS(eV)     FreeEng(eV)     dDmax    Ef(eV) dHmax(eV)
   scf:    1  -110592.794669  -110591.246135  -110591.246135  0.009449 -3.952853  0.152547
   scf:    2  -110590.326236  -110590.958334  -110590.958334  0.003064 -3.947573  1.014162
   scf:    3  -110591.291229  -110591.254553  -110591.254553  0.002681 -3.952003  0.009757
   scf:    4  -110591.255514  -110591.255128  -110591.255128  0.000104 -3.951143  0.003293
   scf:    5  -110591.255281  -110591.255211  -110591.255211  0.000050 -3.951536  0.002273
   scf:    6  -110591.255250  -110591.255234  -110591.255234  0.000030 -3.952319  0.001046
   scf:    7  -110591.255234  -110591.255235  -110591.255235  0.000014 -3.952423  0.001407
   scf:    8  -110591.255236  -110591.255235  -110591.255236  0.000006 -3.952436  0.000274

SCF Convergence by DM+H criterion
max |DM_out - DM_in|         :     0.0000059504
max |H_out - H_in|      (eV) :     0.0002736462
SCF cycle converged after 8 iterations

Using DM_out to compute the final energy and forces
No. of atoms with KB's overlaping orbs in proc 0. Max # of overlaps:     290     235
System symmetry is of type slab but no DFTD3.Periodic list was found. Attempting to guess symmetry for D3.
Could not guess the right amount of periodicity directions for D3.
Enabling periodicity on all directions.

siesta: E_KS(eV) =          -110590.6085

siesta: Atomic forces (eV/Ang):
----------------------------------------
   Tot   -0.000000    0.000002    0.000002
----------------------------------------
   Max    0.156581
   Res    0.052079    sqrt( Sum f_i^2 / 3N )
----------------------------------------
   Max    0.156581    constrained

Stress tensor Voigt[x,y,z,yz,xz,xy] (kbar):      -26.00      -25.98       -4.34        0.00        0.00       -0.01
(Free)E + p*V (eV/cell)  -110175.5330
Target enthalpy (eV/cell)  -110590.6085

                     ====================================
                        Begin CG opt. move =      7
                     ====================================

outcell: Unit cell vectors (Ang):
       31.956337   -1.230000    0.000000
       17.043380   27.060000    0.000000
        0.000000    0.000000   40.000000

outcell: Cell vector modules (Ang)   :   31.980000   31.980000   40.000000
outcell: Cell angles (23,13,12) (deg):     90.0000     90.0000     60.0000
outcell: Cell volume (Ang**3)        :  35428.0739
<dSpData1D:S at geom step 7
  <sparsity:sparsity for geom step 7
    nrows_g=6084 nrows=128 sparsity=.0033 nnzs=122612, refcount: 7>
  <dData1D:(new from dSpData1D) n=122612, refcount: 1>
refcount: 1>
new_DM -- step:     8
Re-using DM from previous geometries...
Number of DMs in history: 1
 DM extrapolation coefficients: 
1   1.00000
New DM after history re-use:
<dSpData2D:SpM extrapolated using coords
  <sparsity:sparsity for geom step 7
    nrows_g=6084 nrows=128 sparsity=.0033 nnzs=122612, refcount: 9>
  <dData2D:(temp array for extrapolation) n=122612 m=1, refcount: 1>
refcount: 1>
No. of atoms with KB's overlaping orbs in proc 0. Max # of overlaps:     289     236

InitMesh: MESH = 300 x 300 x 432 = 38880000
InitMesh: Mesh cutoff (required, used) =   300.000   322.366 Ry
New grid distribution [1]: sub = 2
New grid distribution [2]: sub = 2
New grid distribution [3]: sub = 2
Setting up quadratic distribution...

        iscf     Eharris(eV)        E_KS(eV)     FreeEng(eV)     dDmax    Ef(eV) dHmax(eV)
   scf:    1  -110589.530328  -110590.298890  -110590.298890  0.006953 -3.951101  0.138530
   scf:    2  -110589.622376  -110590.086534  -110590.086534  0.002966 -3.955836  0.917867
   scf:    3  -110590.331907  -110590.304417  -110590.304417  0.002588 -3.952072  0.006085
   scf:    4  -110590.304785  -110590.304641  -110590.304641  0.000067 -3.952444  0.002086
   scf:    5  -110590.304691  -110590.304669  -110590.304669  0.000038 -3.951891  0.001006
   scf:    6  -110590.304679  -110590.304675  -110590.304675  0.000017 -3.951516  0.000383

SCF Convergence by DM+H criterion
max |DM_out - DM_in|         :     0.0000166213
max |H_out - H_in|      (eV) :     0.0003828252
SCF cycle converged after 6 iterations

Using DM_out to compute the final energy and forces
No. of atoms with KB's overlaping orbs in proc 0. Max # of overlaps:     289     236
System symmetry is of type slab but no DFTD3.Periodic list was found. Attempting to guess symmetry for D3.
Could not guess the right amount of periodicity directions for D3.
Enabling periodicity on all directions.

siesta: E_KS(eV) =          -110590.6505

siesta: Atomic forces (eV/Ang):
----------------------------------------
   Tot   -0.000000    0.000000    0.000002
----------------------------------------
   Max    0.070996
   Res    0.025810    sqrt( Sum f_i^2 / 3N )
----------------------------------------
   Max    0.070996    constrained

Stress tensor Voigt[x,y,z,yz,xz,xy] (kbar):      -25.95      -25.95       -4.53        0.00        0.00       -0.00
(Free)E + p*V (eV/cell)  -110174.7573
Target enthalpy (eV/cell)  -110590.6505

cgvc: Finished line minimization    2.  Mean atomic displacement =    0.0921

                     ====================================
                        Begin CG opt. move =      8
                     ====================================

outcell: Unit cell vectors (Ang):
       31.956337   -1.230000    0.000000
       17.043380   27.060000    0.000000
        0.000000    0.000000   40.000000

outcell: Cell vector modules (Ang)   :   31.980000   31.980000   40.000000
outcell: Cell angles (23,13,12) (deg):     90.0000     90.0000     60.0000
outcell: Cell volume (Ang**3)        :  35428.0739
<dSpData1D:S at geom step 8
  <sparsity:sparsity for geom step 8
    nrows_g=6084 nrows=128 sparsity=.0033 nnzs=122814, refcount: 7>
  <dData1D:(new from dSpData1D) n=122814, refcount: 1>
refcount: 1>
new_DM -- step:     9
Re-using DM from previous geometries...
Number of DMs in history: 1
 DM extrapolation coefficients: 
1   1.00000
New DM after history re-use:
<dSpData2D:SpM extrapolated using coords
  <sparsity:sparsity for geom step 8
    nrows_g=6084 nrows=128 sparsity=.0033 nnzs=122814, refcount: 9>
  <dData2D:(temp array for extrapolation) n=122814 m=1, refcount: 1>
refcount: 1>
No. of atoms with KB's overlaping orbs in proc 0. Max # of overlaps:     287     234

InitMesh: MESH = 300 x 300 x 432 = 38880000
InitMesh: Mesh cutoff (required, used) =   300.000   322.366 Ry
New grid distribution [1]: sub = 2
[...]
   14.72898657    6.26529275   21.72552057   1     378  C
   18.97776075    5.94093197   21.73075726   1     379  C
   23.22743333    5.61506124   21.76367436   1     380  C
   27.47741987    5.28737499   21.80555168   1     381  C
   31.72640143    4.95678082   21.82845795   1     382  C
    8.45291951    7.98068706   21.75912100   1     383  C
   12.69951240    7.65429770   21.73075647   1     384  C
   16.94724885    7.32946151   21.72198241   1     385  C
   21.19684429    7.00431844   21.73982209   1     386  C
   25.44706079    6.67714742   21.77510773   1     387  C
   29.69694311    6.34835892   21.80591261   1     388  C
   33.94525766    6.01778421   21.81118023   1     389  C
    6.42405979    9.37187212   21.76293083   1     390  C
   10.67015882    9.04407738   21.73867982   1     391  C
   14.91726810    8.71850787   21.72198216   1     392  C
   19.16593606    8.39301268   21.72552110   1     393  C
   23.41625710    8.06661308   21.74922199   1     394  C
   27.66662946    7.73900527   21.77913678   1     395  C
   31.91579360    7.40924352   21.79545513   1     396  C
   36.16311608    7.07946573   21.78697326   1     397  C
    8.64110349   10.43481676   21.74474346   1     398  C
   12.88740315   10.10791593   21.72764451   1     399  C
   17.13520743    9.78199946   21.72198279   1     400  C
   21.38486217    9.45604326   21.73340109   1     401  C
   25.63557237    9.12877679   21.75566371   1     402  C
   29.88576459    8.80026091   21.77468043   1     403  C
   34.13365940    8.47086629   21.77802399   1     404  C
   10.85792694   11.49820660   21.73424484   1     405  C
   15.10480145   11.17166403   21.72551978   1     406  C
   19.35340441   10.84520903   21.72764587   1     407  C
   23.60400336   10.51816705   21.73990061   1     408  C
   27.85490049   10.19050067   21.75522225   1     409  C
   32.10400258    9.86182756   21.76369294   1     410  C
   36.35116569    9.53296052   21.75985447   1     411  C
    8.82856357   12.88923169   21.73792081   1     412  C
   13.07472566   12.56179375   21.73339932   1     413  C
   17.32245322   12.23473747   21.73075793   1     414  C
   21.57216981   11.90764099   21.73424709   1     415  C
   25.82342125   11.58032216   21.74191870   1     416  C
   30.07370423   11.25225002   21.74886439   1     417  C
   34.32163269   10.92400787   21.75053653   1     418  C
   38.56819148   10.59593247   21.74520819   1     419  C
   11.04532938   13.95256299   21.73989881   1     420  C
   15.29199187   13.62482517   21.73982174   1     421  C
   19.54071530   13.29731735   21.73868096   1     422  C
   23.79151451   12.96960724   21.73792178   1     423  C
   28.04261521   12.64216141   21.73824110   1     424  C
   32.29177262   12.31461053   21.73939154   1     425  C
   36.53861072   11.98676588   21.73986599   1     426  C
   13.26230997   15.01574670   21.74922050   1     427  C
   17.50981236   14.68726867   21.75005743   1     428  C
   21.75965798   14.35916205   21.74474507   1     429  C
   26.01090201   14.03166734   21.73665796   1     430  C
   30.26109785   13.70435745   21.73128232   1     431  C
   34.50919632   13.37743761   21.73197249   1     432  C
   38.75543620   13.05024937   21.73665575   1     433  C
   11.23279147   16.40664697   21.75566305   1     434  C
   15.47982880   16.07799427   21.76367499   1     435  C
   19.72841091   15.74919744   21.75912140   1     436  C
   23.97902532   15.42098451   21.74520926   1     437  C
   28.22988378   15.09381928   21.73119229   1     438  C
   32.47890598   14.76735871   21.72518834   1     439  C
   36.72609226   14.44086668   21.73119006   1     440  C
   40.97210127   14.11355745   21.74191650   1     441  C
   13.45022357   17.46920660   21.77510628   1     442  C
   17.69785650   17.13983040   21.77801874   1     443  C
   21.94764268   16.81064916   21.76293104   1     444  C
   26.19831228   16.48323508   21.73986730   1     445  C
   30.44831489   16.15667621   21.72375689   1     446  C
   34.69641605   15.83065539   21.72375637   1     447  C
   38.94292419   15.50451790   21.73824037   1     448  C
   15.66798952   18.53096027   21.79555302   1     449  C
   19.91672181   18.20087544   21.78723972   1     450  C
   24.16697757   17.87247030   21.75985552   1     451  C
   28.41737866   17.54542371   21.73197358   1     452  C
   32.66648033   17.21998670   21.72062996   1     453  C
   36.91379555   16.89468262   21.73127871   1     454  C
   41.15998457   16.56778007   21.75522094   1     455  C
   13.63861997   19.92243434   21.80555151   1     456  C
   17.88662611   19.59208624   21.81088155   1     457  C
   22.13621409   19.26207410   21.78697409   1     458  C
   26.38642703   18.93457312   21.75053689   1     459  C
   30.63622849   18.60874670   21.72518870   1     460  C
   34.88430548   18.28385877   21.72518807   1     461  C
   39.13108089   17.95844819   21.74886368   1     462  C
   43.37717985   17.63047834   21.77913613   1     463  C
   15.85731829   20.98360969   21.82877390   1     464  C
   20.10610572   20.65253820   21.81667619   1     465  C
   24.35593180   20.32393347   21.77802331   1     466  C
   28.60565335   19.99718389   21.73939107   1     467  C
   32.85470909   19.67263237   21.72375598   1     468  C
   37.10201675   19.34817191   21.73939121   1     469  C
   41.34853691   19.02168037   21.77468063   1     470  C
   18.07671879   22.04415068   21.84218666   1     471  C
   22.32570244   21.71363776   21.81118073   1     472  C
   26.57536714   21.38618976   21.76369270   1     473  C
   30.82454693   21.06092638   21.73127981   1     474  C
   35.07286826   20.73710259   21.73197251   1     475  C
   39.32007508   20.41194820   21.76369222   1     476  C
   43.56635599   20.08410604   21.80591232   1     477  C
   16.04779242   23.43624083   21.85662580   1     478  C
   20.29650053   23.10454223   21.84223459   1     479  C
   24.54547278   22.77547574   21.79545459   1     480  C
   28.79465675   22.44926836   21.74886362   1     481  C
   33.04346521   22.12527761   21.73119112   1     482  C
   37.29138359   21.80138347   21.75053632   1     483  C
   41.53817938   21.47524657   21.79545494   1     484  C
   45.78483318   21.14542410   21.83551721   1     485  C
   18.26765477   24.49649740   21.86433220   1     486  C
   22.51627507   24.16572595   21.82845765   1     487  C
   26.76514408   23.83802563   21.77468007   1     488  C
   31.01390067   23.51328686   21.73824058   1     489  C
   35.26252054   23.18996451   21.73986655   1     490  C
   39.50985346   22.86516316   21.77802375   1     491  C
   43.75677065   22.53745974   21.82845779   1     492  C
   20.48777113   25.55690920   21.85680712   1     493  C
   24.73614769   25.22749877   21.80591236   1     494  C
   28.98455888   24.90168402   21.75522170   1     495  C
   33.23310407   24.57805142   21.73665732   1     496  C
   37.48130108   24.25453515   21.75985494   1     497  C
   41.72848634   23.92854421   21.81118039   1     498  C
   45.97582224   23.59860378   21.85680693   1     499  C
   18.45946514   26.94905392   21.87277476   1     500  C
   22.70778104   26.61809738   21.83551737   1     501  C
   26.95563776   26.29048127   21.77913641   1     502  C
   31.20391812   25.96608675   21.74191793   1     503  C
   35.45222748   25.64304937   21.74520913   1     504  C
   39.70011511   25.31842487   21.78697363   1     505  C
   43.94764744   24.99043314   21.84223444   1     506  C
   48.19560897   24.65909438   21.87277438   1     507  C
    0.80410834    1.17090561   21.87277438   1     508  C
    5.05206984    0.83956691   21.84223447   1     509  C
    9.29960219    0.51157515   21.78697366   1     510  C
   13.54748985    0.18695071   21.74520919   1     511  C
   17.79579923   -0.13608667   21.74191797   1     512  C
   22.04407960   -0.46048126   21.77913645   1     513  C
   26.29193626   -0.78809730   21.83551735   1     514  C
   30.54025218   -1.11905392   21.87277475   1     515  C
    3.02389509    2.23139619   21.85680693   1     516  C
    7.27123097    1.90145581   21.81118038   1     517  C
   11.51841621    1.57546490   21.75985507   1     518  C
   15.76661317    1.25194854   21.73665732   1     519  C
   20.01515849    0.92831592   21.75522176   1     520  C
   24.26356960    0.60250126   21.80591236   1     521  C
   28.51194611    0.27309079   21.85680708   1     522  C
    5.24294666    3.29254028   21.82845783   1     523  C
    9.48986384    2.96483679   21.77802384   1     524  C
   13.73719672    2.64003555   21.73986665   1     525  C
   17.98581670    2.31671364   21.73824056   1     526  C
   22.23457329    1.99197436   21.77468007   1     527  C
   26.48344226    1.66427400   21.82845765   1     528  C
   30.73206255    1.33350255   21.86433218   1     529  C
    3.21488411    4.68457588   21.83551723   1     530  C
    7.46153795    4.35475343   21.79545492   1     531  C
   11.70833365    4.02861659   21.75053645   1     532  C
   15.95625207    3.70472268   21.73119111   1     533  C
   20.20506036    3.38073202   21.74886362   1     534  C
   24.45424453    3.05452427   21.79545460   1     535  C
   28.70321678    2.72545776   21.84223459   1     536  C
   32.95192492    2.39375916   21.85662581   1     537  C
    5.43336134    5.74589399   21.80591233   1     538  C
    9.67964222    5.41805184   21.76369224   1     539  C
   13.92684907    5.09289744   21.73197257   1     540  C
   18.17517025    4.76907469   21.73127989   1     541  C
   22.42435016    4.44381028   21.76369269   1     542  C
   26.67401488    4.11636219   21.81118074   1     543  C
   30.92299851    3.78584931   21.84218666   1     544  C
    7.65118036    6.80831966   21.77468063   1     545  C
   11.89770031    6.48182834   21.73939124   1     546  C
   16.14500809    6.15736796   21.72375596   1     547  C
   20.39406404    5.83281641   21.73939103   1     548  C
   24.64378552    5.50606650   21.77802341   1     549  C
   28.89361162    5.17746174   21.81667619   1     550  C
   33.14239904    4.84639027   21.82877391   1     551  C
    5.62253750    8.19952167   21.77913614   1     552  C
    9.86863601    7.87155179   21.74886367   1     553  C
   14.11541139    7.54614147   21.72518805   1     554  C
   18.36348877    7.22125383   21.72518871   1     555  C
   22.61329027    6.89542694   21.75053698   1     556  C
   26.86350326    6.56792586   21.78697419   1     557  C
   31.11309121    6.23791376   21.81088157   1     558  C
   35.36109735    5.90756564   21.80555153   1     559  C
    7.83973285    9.26221997   21.75522095   1     560  C
   12.08592079    8.93531789   21.73127858   1     561  C
   16.33323710    8.61001324   21.72062999   1     562  C
   20.58233859    8.28457627   21.73197353   1     563  C
   24.83273979    7.95752966   21.75985563   1     564  C
   29.08299550    7.62912449   21.78723971   1     565  C
   33.33172779    7.29903970   21.79555303   1     566  C
   10.05679267   10.32548241   21.73824039   1     567  C
   14.30330083    9.99934474   21.72375634   1     568  C
   18.55140241    9.67332381   21.72375686   1     569  C
   22.80140505    9.34676491   21.73986736   1     570  C
   27.05207470    9.01935079   21.76293113   1     571  C
   31.30186082    8.69016959   21.77801874   1     572  C
   35.54949377    8.36079338   21.77510629   1     573  C
    8.02761605   11.71644258   21.74191650   1     574  C
   12.27362475   11.38913345   21.73119002   1     575  C
   16.52081129   11.06264130   21.72518829   1     576  C
   20.76983354   10.73618073   21.73119225   1     577  C
   25.02069202   10.40901549   21.74520935   1     578  C
   29.27130644   10.08080259   21.75912140   1     579  C
   33.51988848    9.75200575   21.76367497   1     580  C
   37.76692584    9.42335306   21.75566308   1     581  C
   10.24428115   12.77975059   21.73665574   1     582  C
   14.49052097   12.45256246   21.73197233   1     583  C
   18.73861944   12.12564259   21.73128230   1     584  C
   22.98881529   11.79833265   21.73665795   1     585  C
   27.24005935   11.47083794   21.74474506   1     586  C
   31.48990490   11.14273133   21.75005742   1     587  C
   35.73740734   10.81425331   21.74922051   1     588  C
   12.46110652   13.84323409   21.73986594   1     589  C
   16.70794467   13.51538941   21.73939151   1     590  C
   20.95710209   13.18783855   21.73824108   1     591  C
   25.20820284   12.86039273   21.73792176   1     592  C
   29.45900203   12.53268267   21.73868098   1     593  C
   33.70772543   12.20517487   21.73982194   1     594  C
   37.95438797   11.87743709   21.73989881   1     595  C
   10.43152585   15.23406755   21.74520818   1     596  C
   14.67808464   14.90599210   21.75053649   1     597  C
   18.92601308   14.57774998   21.74886439   1     598  C
   23.17629611   14.24967783   21.74191869   1     599  C
   27.42754753   13.92235903   21.73424714   1     600  C
   31.67726404   13.59526254   21.73075795   1     601  C
   35.92499167   13.26820634   21.73339952   1     602  C
   40.17115367   12.94076838   21.73792082   1     603  C
   12.64855164   16.29703949   21.75985446   1     604  C
   16.89571474   15.96817243   21.76369294   1     605  C
   21.14481684   15.63949933   21.75522224   1     606  C
   25.39571401   15.31183298   21.73990057   1     607  C
   29.64631289   14.98479099   21.72764591   1     608  C
   33.89491567   14.65833585   21.72551998   1     609  C
   38.14179045   14.33179355   21.73424483   1     610  C
   14.86605787   17.35913370   21.77802400   1     611  C
   19.11395272   17.02973908   21.77468042   1     612  C
   23.36414499   16.70122320   21.75566360   1     613  C
   27.61485517   16.37395681   21.73340110   1     614  C
   31.86450987   16.04800060   21.72198278   1     615  C
   36.11231414   15.72208411   21.72764456   1     616  C
   40.35861355   15.39518343   21.74474345   1     617  C
   12.83660125   18.75053426   21.78697325   1     618  C
   17.08392375   18.42075648   21.79545511   1     619  C
   21.33308791   18.09099471   21.77913674   1     620  C
   25.58346026   17.76338692   21.74922188   1     621  C
   29.83378128   17.43698765   21.72552115   1     622  C
   34.08244904   17.11149210   21.72198215   1     623  C
   38.32955831   16.78592262   21.73867984   1     624  C
   42.57565749   16.45812793   21.76293081   1     625  C
   15.05445965   19.81221579   21.81118022   1     626  C
   19.30277421   19.48164106   21.80591260   1     627  C
   23.55265657   19.15285254   21.77510761   1     628  C
   27.80287315   18.82568159   21.73982211   1     629  C
   32.05246828   18.50053853   21.72198239   1     630  C
   36.30020490   18.17570241   21.73075654   1     631  C
   40.54679759   17.84931283   21.75912098   1     632  C
   17.27331588   20.87321917   21.82845793   1     633  C
   21.52229745   20.54262498   21.80555165   1     634  C
   25.77228400   20.21493877   21.76367431   1     635  C
   30.02195659   19.88906811   21.73075725   1     636  C
   34.27073034   19.56470754   21.72552062   1     637  C
   38.51784179   19.23971166   21.75005717   1     638  C
   42.76416767   18.91206963   21.78724011   1     639  C
   15.24441446   22.26500880   21.84223426   1     640  C
   19.49288469   21.93355641   21.83551780   1     641  C
   23.74203587   21.60437175   21.79555346   1     642  C
   27.99167821   21.27759297   21.75005699   1     643  C
   32.24079852   20.95315778   21.72764482   1     644  C
   36.48882640   20.62917748   21.73982157   1     645  C
   40.73584457   20.30314099   21.77801863   1     646  C
   44.98205827   19.97389375   21.81667645   1     647  C
   17.46386315   23.32554541   21.85680673   1     648  C
   21.71264100   22.99465920   21.82877440   1     649  C
   25.96171987   22.66672458   21.77801876   1     650  C
   30.21086406   22.34142803   21.73868029   1     651  C
   34.45958097   22.01786945   21.73339999   1     652  C
   38.70725185   21.69309100   21.76367420   1     653  C
   42.95394105   21.36579155   21.81088165   1     654  C
   19.68383758   24.38593089   21.85662642   1     655  C
   23.93238935   24.05632930   21.81088100   1     656  C
   28.18132059   23.72991786   21.75912081   1     657  C
   32.43008803   23.40588165   21.73424601   1     658  C
   36.67855904   23.08239498   21.74922122   1     659  C
   40.92566033   22.75662214   21.79555354   1     660  C
   45.17253718   22.42719877   21.84218650   1     661  C
   17.65534312   25.77818130   21.87277503   1     662  C
   21.90388501   25.44698676   21.84218685   1     663  C
   26.15226167   25.11883973   21.78723972   1     664  C
   30.40075195   24.79401058   21.74474449   1     665  C
   34.64932502   24.47076349   21.73990021   1     666  C
   38.89727293   24.14638689   21.77510687   1     667  C
   43.14438126   23.81898576   21.82877419   1     668  C
   47.39179880   23.48801803   21.86433166   1     669  C
   19.87555834   26.83851394   21.86433235   1     670  C
   24.12375150   26.50867862   21.81667616   1     671  C
   28.37169311   26.18255380   21.76293190   1     672  C
   32.62006924   25.85887282   21.73792194   1     673  C
   36.86835456   25.53545998   21.75566362   1     674  C
   41.11602820   25.20984471   21.80555138   1     675  C
   45.36365892   24.88034477   21.85662653   1     676  C

siesta: Program's energy decomposition (eV):
siesta: Ebs     =    -35877.981027
siesta: Eions   =    190741.314426
siesta: Ena     =     42118.975062
siesta: Ekin    =     76827.498464
siesta: Enl     =     -3897.896514
siesta: Eso     =         0.000000
siesta: Edftu   =         0.000000
siesta: DEna    =      4427.784042
siesta: DUscf   =       225.262301
siesta: DUext   =         0.000000
siesta: Ex      =    -36057.074650
siesta: Ec      =     -3428.286397
siesta: Exc     =    -39485.361047
siesta: EbV     =         0.000000
siesta: eta*DQ  =         0.000000
siesta: Emadel  =         0.000000
siesta: Emeta   =         0.000000
siesta: Emolmec =         0.000000
siesta: Ekinion =         0.000000
siesta: Eharris =   -110590.815656
siesta: Etot    =   -110590.814237
siesta: FreeEng =   -110590.814237

siesta: Final energy (eV):
siesta:  Band Struct. =  -35877.981027
siesta:       Kinetic =   76827.498464
siesta:       Hartree = 1787226.524845
siesta:         Edftu =       0.000000
siesta:       Eso     =       0.000000
siesta:    Ext. field =       0.000000
siesta:         Exch. =  -36057.074650
siesta:         Corr. =   -3428.286397
siesta:     Bulk bias =       0.000000
siesta:   Exch.-corr. =  -39485.361047
siesta:  Ion-electron =-3643989.878916
siesta:       Ion-ion = 1708896.164536
siesta:       Ekinion =       0.000000
siesta: D3 dispersion =     -65.762118
siesta:         Total = -110590.814237
siesta:         Fermi =      -3.955484

siesta: Stress tensor (static) (eV/Ang**3):
siesta:    -0.016259   -0.000002   -0.000000
siesta:    -0.000002   -0.016257   -0.000000
siesta:    -0.000000   -0.000000   -0.002468

siesta: Cell volume =      35428.073895 Ang**3

siesta: Pressure (static):
siesta:                Solid            Molecule  Units
siesta:           0.00012701          0.00012718  Ry/Bohr**3
siesta:           0.01166111          0.01167707  eV/Ang**3
siesta:          18.68315986         18.70872704  kBar
(Free)E+ p_basis*V_orbitals  =     -110183.425560
(Free)Eharris+ p_basis*V_orbitals  =     -110183.426980

siesta: Electric dipole (a.u.)  =    0.000000    0.000000   -0.000000
siesta: Electric dipole (Debye) =    0.000000    0.000000   -0.000000

cite: Please see "Graphene.bib" for an exhaustive BiBTeX file.
cite: Please clearly indicate Siesta version in published work: 5.0.0-alpha-112-g6e4f53aee-dirty
cite: This calculation has made use of the following articles
cite: which are encouraged to be cited in a published work.
        Primary SIESTA paper
          DOI: www.doi.org/10.1088/0953-8984/14/11/302
 
 
>> End of run:  30-NOV-2024  22:32:32
Job completed
