Siesta Version  : 5.0.0-alpha-112-g6e4f53aee-dirty
Architecture    : ----
Compiler version: Intel-2021.8.0.20221119
Compiler flags  : -O2 -ip -xHost -fp-model=strict -prec-div -prec-sqrt
PP flags        : ----
Libraries       : ----
Parallelisations: MPI
GEMM3M support
NetCDF support
NetCDF-4 support

Runtime information:
* Directory : /n/holylabs/LABS/kaxiras_lab/axzhu/projects/AM207-final-project/N_4
* Running on 64 nodes in parallel.
>> Start of run:   1-DEC-2024  14:23:48

                           *********************** 
                           *  WELCOME TO SIESTA  * 
                           *********************** 

reinit: Reading from standard input
reinit: Dumping input in INPUT_TMP.81061
************************** Dump of input data file ****************************
#################################
#				#
#	Basic Information	#
#	      			#
#################################
SystemName      Graphene
SystemLabel     Graphene
#########################################
#					#
#	Structural Information		#
#					#
#########################################
%include structure.fdf
#################################
#                               #
#       DFT Parameters          #
#                               #
#################################
SolutionMethod diagon           # Method of solving system. Can change to OrderN, transiesta, etc.
#Diag.Algorithm MRRR
#NumberOfEigenStates -20 # this will include first 10 conduction bands
XC.Functional   GGA
XC.Authors      PBE
DFTD3 true
Spin non-polarized
# This is causing memory issues, keep it low for now.
Mesh.Cutoff 300 Ry              # Cut off plane waves with kinetic energy higher than this.
MaxSCFIterations 300            # Max number of iterations in the SCF loop.
DM.UseSaveDM true
MinSCFIterations       3
SCF.DM.Tolerance       0.0001
SCF.Mixer.Weight       0.10
SCF.Mixer.History      12
SCF.Mix.First          true
#################################
#                               #
#             Basis             #
#                               #
#################################
#PAO.BasisSize   DZP
PAO.Basis < basis.fdf
#########################################
#					#
#	k-points, Bands, DOS		#
#		  	 		#
#########################################
%block kgrid_Monkhorst_Pack
   1  0  0  0.0
   0  1  0  0.0
   0  0  1  0.0
%endblock kgrid_Monkhorst_Pack
#BandLinesScale ReciprocalLatticeVectors
#%block BandLines
#1   0.6666666667  0.3333333333  0.0000000000  K
#10  0.0000000000  0.0000000000  0.0000000000  Gamma
#10  0.5000000000  0.0000000000  0.0000000000  M
#10  0.6666666667  0.3333333333  0.0000000000  K
#%endblock BandLines
# Local density of states (LDOS)
# %block LocalDensityOfStates
# EF 8.40 8.50 eV
# %endblock LocalDensityOfStates
#########################################
#                                       #
#             Wavefunctions             #
#                                       #
#########################################
#WaveFuncKPointsScale ReciprocalLatticeVectors
#%block WaveFuncKPoints
#0.666 0.333 0.000 from 4375 to 4378 # K wavefuncs 4375 to 4378
#0.000 0.000 0.000 from 4375 to 4378 # Gamma wavefuncs 4375 to 4378
#0.500 0.000 0.000 from 4375 to 4378 # M wavefuncs 4375 to 4378
#%endblock WaveFuncKPoints
#WriteDenchar T
#########################################
#                                       #
#       Geometry Optimisation           #
#                                       #
#########################################
MD.UseSaveXV true
MD.TypeOfRun           CG                  # Conjugate Gradient
MD.NumCGsteps          200                 # Max number of steps
MD.MaxForceTol         0.01    eV/Ang      # 10 meV/Ang
MD.VariableCell        false               # Don't relax cell
MD.MaxCGDispl          0.5 Bohr            # Maximum displacement of any atom
# Fix COM in Z direction only
%block Geometry.Constraints
 center all 0.0 0.0 1.0
%endblock Geometry.Constraints
************************** End of input data file *****************************

reinit: -----------------------------------------------------------------------
reinit: System Name: Graphene
reinit: -----------------------------------------------------------------------
reinit: System Label: Graphene
reinit: -----------------------------------------------------------------------

initatom: Reading input for the pseudopotentials and atomic orbitals ----------
Species number:   1 Atomic number:    6 Label: C
 

---- Processing specs for species: C
Ground state valence configuration:   2s02  2p02
Reading pseudopotential information in PSML from:
  C.psml
PSML file version: 1.1
Using libxc ids:  101 130
GGA--PBE XC_GGA_X_PBE--XC_GGA_C_PBE pb
 Using ATOM defaults for log grid...
PSML uuid: 297821e0-be41-11e7-6802-e1ff7dfff095

---- Pseudopotential check for C 

Pseudized shells:
2s( 2.00) rc: 1.20
2p( 2.00) rc: 1.26
Valence configuration for ps generation: 2s:2p: Total charge:   4.000000
For C, standard SIESTA heuristics set lmxkb to 3
 (one more than the basis l, including polarization orbitals).
Use PS.lmax or PS.KBprojectors blocks to override.
C pseudopotential only contains V_ls up to l=1 -- lmxkb reset.

<basis_specs>
===============================================================================
C                    Z=   6    Mass=  12.011        Charge= 0.99941    
Lmxo=2 Lmxkb= 1    BasisType=split      Semic=F
L=0  Nsemic=0  Cnfigmx=2
          i=1  nzeta=1  polorb=0  (2s)
            splnorm:   0.15000    
               vcte:    132.57    
               rinn:    4.5256    
               qcoe:    0.0000    
               qyuk:    0.0000    
               qwid:   0.10000E-01
                rcs:    6.0009    
            lambdas:    1.0000    
L=1  Nsemic=0  Cnfigmx=2
          i=1  nzeta=1  polorb=0  (2p)
            splnorm:   0.15000    
               vcte:    6.0639    
               rinn:    6.0646    
               qcoe:    0.0000    
               qyuk:    0.0000    
               qwid:   0.10000E-01
                rcs:    6.7108    
            lambdas:    1.0000    
L=2  Nsemic=0  Cnfigmx=3
          i=1  nzeta=1  polorb=0  (3d)
            splnorm:   0.15000    
               vcte:    14.478    
               rinn:    4.3208    
               qcoe:    0.0000    
               qyuk:    0.0000    
               qwid:   0.10000E-01
                rcs:    6.2254    
            lambdas:    1.0000    
-------------------------------------------------------------------------------
L=0  Nkbl=1  erefs: 0.17977+309
L=1  Nkbl=1  erefs: 0.17977+309
===============================================================================
</basis_specs>

atom: Called for C                     (Z =   6)
NOTE: C pseudopotential has channels up to l= 1
NOTE: PAOs with higher l will be generated with V_local

read_vps: Pseudopotential generation method:
read_vps: ONCVPSP-3.Hamann's oncvpsp                        
Valence charge in pseudo generation:    4.00000

read_vps: Pseudopotential includes a core correction:
read_vps: Pseudo-core for xc-correction

xc_check: Exchange-correlation functional:
xc_check: GGA Perdew, Burke & Ernzerhof 1996
Got Vlocal (oncv-fit) from psml data
Choosing vlocal chloc cutoff:  4.139772
qtot up to nchloc:    3.99998844
atom: Maximum radius for chlocal:    4.13977
atom: Maximum radius for r*vlocal+2*Zval:    4.13977
Reading KB projs from C psml data
Using scalar-relativistic projectors in PSML file

PSML: Kleinman-Bylander projectors: 
   l= 0   rc=  1.231096   Ekb= 12.963096
   l= 0   rc=  1.231096   Ekb=  0.771007
   l= 1   rc=  1.294237   Ekb= -8.399923
   l= 1   rc=  1.294237   Ekb= -1.755033

PSML: Total number of  Kleinman-Bylander projectors:   8
atom: -------------------------------------------------------------------------

atom: SANKEY-TYPE ORBITALS:

atom: basis set generated (by rescaling the valence charge)
atom: for a cation of charge   0.9994

SPLIT: Orbitals with angular momentum L= 0

SPLIT: Basis orbitals for state 2s

   izeta = 1
                 lambda =    1.000000
                     rc =    6.099293
                 energy =   -2.079355
                kinetic =    1.090115
    potential(screened) =   -3.169470
       potential(ionic) =   -5.727963

SPLIT: Orbitals with angular momentum L= 1

SPLIT: Basis orbitals for state 2p

   izeta = 1
                 lambda =    1.000000
                     rc =    6.740804
                 energy =   -1.441657
                kinetic =    3.222058
    potential(screened) =   -4.663715
       potential(ionic) =   -7.206130
*Note: V_local used for l= 2

** Using vlocal for PAOs with L= 2

SPLIT: Orbitals with angular momentum L= 2

SPLIT: Basis orbitals for state 3d

   izeta = 1
                 lambda =    1.000000
                     rc =    6.253707
                 energy =    0.017329
                kinetic =    1.197074
    potential(screened) =   -1.179745
       potential(ionic) =   -2.838380
atom: Total number of Sankey-type orbitals:  9

atm_pop: Valence configuration (for local Pseudopot. screening):
 2s( 2.00)                                                            
 2p( 2.00)                                                            
 3d( 0.00)                                                            
Vna: chval, zval:    4.00000   4.00000

Vna:  Cut-off radius for the neutral-atom potential:   6.740804
comcore: Pseudo-core radius Rcore=  1.682861

atom: _________________________________________________________________________

prinput: Basis input 

PAO.BasisType split     

%block ChemicalSpeciesLabel
    1    6 C                       # Species index, atomic number, species label
%endblock ChemicalSpeciesLabel

%block PAO.Basis                 # Define Basis set
# WARNING: This information might be incomplete!
C                     3   0.999            # Label, l-shells, ionic net charge
 n=2   0   1                         # n, l, Nzeta 
   6.099   
   1.000   
 n=2   1   1                         # n, l, Nzeta 
   6.741   
   1.000   
 n=3   2   1                         # n, l, Nzeta 
   6.254   
   1.000   
%endblock PAO.Basis

prinput: ----------------------------------------------------------------------

Dumping basis to NetCDF file C.ion.nc
coor:   Atomic-coordinates input format  =     Cartesian coordinates
coor:                                          (in Angstroms)

siesta: WARNING: XV file not found

siesta: Atomic coordinates (Bohr) and species
siesta:      2.68394   0.00000  34.51400  1        1
siesta:     10.73577   0.00000  34.57777  1        2
siesta:     18.78760   0.00000  34.55410  1        3
siesta:     26.83943   0.00000  34.50719  1        4
siesta:      6.70986   2.32436  34.53623  1        5
siesta:     14.76169   2.32436  34.59127  1        6
siesta:     22.81352   2.32436  34.53100  1        7
siesta:     30.86535   2.32436  34.56206  1        8
siesta:     10.73577   4.64873  34.57384  1        9
siesta:     18.78760   4.64873  34.62101  1       10
siesta:     26.83943   4.64873  34.57414  1       11
siesta:      6.70986   6.97309  34.57790  1       12
siesta:     14.76169   6.97309  34.54466  1       13
siesta:     22.81352   6.97309  34.58010  1       14
siesta:     30.86535   6.97309  34.57132  1       15
siesta:     10.73577   9.29745  34.55063  1       16
siesta:     18.78760   9.29745  34.59444  1       17
siesta:     26.83943   9.29745  34.59787  1       18
siesta:     34.89126   9.29745  34.52951  1       19
siesta:     14.76169  11.62182  34.52043  1       20
siesta:     22.81352  11.62182  34.54706  1       21
siesta:     30.86535  11.62182  34.59695  1       22
siesta:     10.73577  13.94618  34.54986  1       23
siesta:     18.78760  13.94618  34.51792  1       24
siesta:     26.83943  13.94618  34.50589  1       25
siesta:     34.89126  13.94618  34.55981  1       26
siesta:     14.76169  16.27054  34.58399  1       27
siesta:     22.81352  16.27054  34.55286  1       28
siesta:     30.86535  16.27054  34.56017  1       29
siesta:     38.91718  16.27054  34.52978  1       30
siesta:     18.78760  18.59491  34.55714  1       31
siesta:     26.83943  18.59491  34.52612  1       32
siesta:     34.89126  18.59491  34.61289  1       33
siesta:     14.76169  20.91927  34.53911  1       34
siesta:     22.81352  20.91927  34.57984  1       35
siesta:     30.86535  20.91927  34.56250  1       36
siesta:     38.91718  20.91927  34.52947  1       37
siesta:      5.36789   0.00000  34.53999  1       38
siesta:     13.41972   0.00000  34.52885  1       39
siesta:     21.47155   0.00000  34.51547  1       40
siesta:     29.52338   0.00000  34.51661  1       41
siesta:      9.39380   2.32436  34.58365  1       42
siesta:     17.44563   2.32436  34.56268  1       43
siesta:     25.49746   2.32436  34.50162  1       44
siesta:      5.36789   4.64873  34.47013  1       45
siesta:     13.41972   4.64873  34.49420  1       46
siesta:     21.47155   4.64873  34.53928  1       47
siesta:     29.52338   4.64873  34.51918  1       48
siesta:      9.39380   6.97309  34.50913  1       49
siesta:     17.44563   6.97309  34.56164  1       50
siesta:     25.49746   6.97309  34.57112  1       51
siesta:     33.54929   6.97309  34.59846  1       52
siesta:     13.41972   9.29745  34.54242  1       53
siesta:     21.47155   9.29745  34.60722  1       54
siesta:     29.52338   9.29745  34.57104  1       55
siesta:      9.39380  11.62182  34.59418  1       56
siesta:     17.44563  11.62182  34.49389  1       57
siesta:     25.49746  11.62182  34.49047  1       58
siesta:     33.54929  11.62182  34.53716  1       59
siesta:     13.41972  13.94618  34.53651  1       60
siesta:     21.47155  13.94618  34.56177  1       61
siesta:     29.52338  13.94618  34.54252  1       62
siesta:     37.57521  13.94618  34.60129  1       63
siesta:     17.44563  16.27054  34.52275  1       64
siesta:     25.49746  16.27054  34.58515  1       65
siesta:     33.54929  16.27054  34.54277  1       66
siesta:     13.41972  18.59491  34.46155  1       67
siesta:     21.47155  18.59491  34.53873  1       68
siesta:     29.52338  18.59491  34.56023  1       69
siesta:     37.57521  18.59491  34.54388  1       70
siesta:     17.44563  20.91927  34.54556  1       71
siesta:     25.49746  20.91927  34.57286  1       72
siesta:     33.54929  20.91927  34.56901  1       73
siesta:     41.60112  20.91927  34.61544  1       74
siesta:      7.00001   1.19359  41.05128  1       75
siesta:     14.94304  -0.12564  41.12253  1       76
siesta:     22.88606  -1.44487  41.01992  1       77
siesta:      3.40933   4.14616  41.01940  1       78
siesta:     11.35236   2.82693  41.01260  1       79
siesta:     19.29538   1.50770  41.02383  1       80
siesta:     27.23840   0.18846  41.04507  1       81
siesta:      7.76167   5.77950  41.01807  1       82
siesta:     15.70470   4.46026  41.02573  1       83
siesta:     23.64772   3.14103  41.07637  1       84
siesta:     12.11401   7.41283  40.97626  1       85
siesta:     20.05704   6.09360  41.01310  1       86
siesta:     28.00006   4.77437  41.00485  1       87
siesta:      8.52333  10.36540  41.04685  1       88
siesta:     16.46636   9.04617  40.97986  1       89
siesta:     24.40938   7.72694  41.03912  1       90
siesta:     32.35240   6.40770  41.10399  1       91
siesta:     12.87567  11.99874  41.00229  1       92
siesta:     20.81870  10.67951  41.00117  1       93
siesta:     28.76172   9.36027  41.00034  1       94
siesta:     17.22801  13.63208  41.03160  1       95
siesta:     25.17104  12.31284  40.98968  1       96
siesta:     33.11406  10.99361  41.08260  1       97
siesta:     13.63733  16.58465  40.99514  1       98
siesta:     21.58036  15.26541  41.02702  1       99
siesta:     29.52338  13.94618  41.01372  1      100
siesta:     37.46640  12.62695  40.98376  1      101
siesta:     17.98967  18.21798  40.99467  1      102
siesta:     25.93270  16.89875  41.04159  1      103
siesta:     33.87572  15.57952  41.06244  1      104
siesta:     22.34202  19.85132  41.00048  1      105
siesta:     30.28504  18.53208  40.99402  1      106
siesta:     38.22806  17.21285  40.97549  1      107
siesta:     18.75133  22.80389  41.03000  1      108
siesta:     26.69436  21.48465  41.01773  1      109
siesta:     34.63738  20.16542  41.05331  1      110
siesta:     42.58040  18.84619  41.04106  1      111
siesta:      1.70467   2.07308  41.02785  1      112
siesta:      9.64769   0.75385  41.05361  1      113
siesta:     17.59071  -0.56539  41.05317  1      114
siesta:     25.53373  -1.88462  41.03122  1      115
siesta:      6.05701   3.70642  41.02215  1      116
siesta:     14.00003   2.38718  40.98471  1      117
siesta:     21.94305   1.06795  40.97647  1      118
siesta:     10.40935   5.33975  40.98051  1      119
siesta:     18.35237   4.02052  41.03166  1      120
siesta:     26.29539   2.70129  40.99889  1      121
siesta:      6.81867   8.29232  41.08563  1      122
siesta:     14.76169   6.97309  41.03859  1      123
siesta:     22.70471   5.65386  41.00371  1      124
siesta:     30.64773   4.33462  41.00333  1      125
siesta:     11.17101   9.92566  41.02368  1      126
siesta:     19.11403   8.60643  41.02034  1      127
siesta:     27.05705   7.28719  41.02421  1      128
siesta:     15.52335  11.55900  41.08263  1      129
siesta:     23.46637  10.23976  41.03369  1      130
siesta:     31.40939   8.92053  41.02629  1      131
siesta:     11.93267  14.51156  41.04938  1      132
siesta:     19.87569  13.19233  41.03125  1      133
siesta:     27.81871  11.87310  40.99072  1      134
siesta:     35.76173  10.55387  41.05958  1      135
siesta:     16.28501  16.14490  41.05658  1      136
siesta:     24.22803  14.82567  41.08595  1      137
siesta:     32.17105  13.50643  40.97451  1      138
siesta:     20.63735  17.77824  41.00216  1      139
siesta:     28.58037  16.45900  41.03123  1      140
siesta:     36.52339  15.13977  41.05616  1      141
siesta:     17.04667  20.73081  41.01711  1      142
siesta:     24.98969  19.41157  41.00246  1      143
siesta:     32.93271  18.09234  41.04358  1      144
siesta:     40.87573  16.77311  40.98707  1      145
siesta:     21.39901  22.36414  41.00027  1      146
siesta:     29.34203  21.04491  41.01648  1      147
siesta:     37.28505  19.72568  41.04065  1      148

siesta: System type = slab      

initatomlists: Number of atoms, orbitals, and projectors:    148  1332  1184

siesta: ******************** Simulation parameters ****************************
siesta:
siesta: The following are some of the parameters of the simulation.
siesta: A complete list of the parameters used, including default values,
siesta: can be found in file out.fdf
siesta:
redata: Spin configuration                          = none
redata: Number of spin components                   = 1
redata: Time-Reversal Symmetry                      = T
redata: Spin spiral                                 = F
redata: Long output                                 =   F
redata: Number of Atomic Species                    =        1
redata: Charge density info will appear in .RHO file
redata: Write Mulliken Pop.                         = NO
redata: Matel table size (NRTAB)                    =     1024
redata: Mesh Cutoff                                 =   300.0000 Ry
redata: Net charge of the system                    =     0.0000 |e|
redata: Min. number of SCF Iter                     =        3
redata: Max. number of SCF Iter                     =      300
redata: SCF convergence failure will abort job
redata: SCF mix quantity                            = Hamiltonian
redata: Mix DM or H after convergence               =   F
redata: Recompute H after scf cycle                 =   F
redata: Mix DM in first SCF step                    =   T
redata: Write Pulay info on disk                    =   F
redata: New DM Occupancy tolerance                  = 0.000000000001
redata: No kicks to SCF
redata: DM Mixing Weight for Kicks                  =     0.5000
redata: Require Harris convergence for SCF          =   F
redata: Harris energy tolerance for SCF             =     0.000100 eV
redata: Require DM convergence for SCF              =   T
redata: DM tolerance for SCF                        =     0.000100
redata: Require EDM convergence for SCF             =   F
redata: EDM tolerance for SCF                       =     0.001000 eV
redata: Require H convergence for SCF               =   T
redata: Hamiltonian tolerance for SCF               =     0.001000 eV
redata: Require (free) Energy convergence for SCF   =   F
redata: (free) Energy tolerance for SCF             =     0.000100 eV
redata: Using DFT-D3 dispersion                     =   T
redata: Using Saved Data (generic)                  =   F
redata: Use continuation files for DM               =   T
redata: Neglect nonoverlap interactions             =   F
redata: Method of Calculation                       = Diagonalization
redata: Electronic Temperature                      =   299.9863 K
redata: Fix the spin of the system                  =   F
redata: Max. number of TDED Iter                    =        1
redata: Number of TDED substeps                     =        3
redata: Dynamics option                             = CG coord. optimization
redata: Variable cell                               =   F
redata: Use continuation files for CG               =   F
redata: Max atomic displ per move                   =     0.2646 Ang
redata: Maximum number of optimization moves        =      200
redata: Force tolerance                             =     0.0100 eV/Ang
mix.SCF: Pulay mixing                            = Pulay
mix.SCF:    Variant                              = stable
mix.SCF:    History steps                        = 12
mix.SCF:    Linear mixing weight                 =     0.100000
mix.SCF:    Mixing weight                        =     0.100000
mix.SCF:    SVD condition                        = 0.1000E-07
redata: Save all siesta data in one NC              =   F
redata: ***********************************************************************

%block SCF.Mixers
  Pulay
%endblock SCF.Mixers

%block SCF.Mixer.Pulay
  # Mixing method
  method pulay
  variant stable

  # Mixing options
  weight 0.1000
  weight.linear 0.1000
  history 12
%endblock SCF.Mixer.Pulay
 
DFT-D3: loading default parameters for functional PBE.
DM_history_depth set to one: no extrapolation allowed by default for geometry relaxation
Size of DM history Fstack: 1
Total number of electrons:   592.000000
Total ionic charge:   592.000000

* ProcessorY, Blocksize:    4  20


* Orbital distribution balance (max,min):    40    20

 Kpoints in:            1 . Kpoints trimmed:            1

siesta: k-grid: Number of k-points = 1
siesta: k-points from Monkhorst-Pack grid
siesta: k-cutoff (effective) =     7.482 Ang
siesta: k-point supercell and displacements
siesta: k-grid:     1     0     0      0.000
siesta: k-grid:     0     1     0      0.000
siesta: k-grid:     0     0     1      0.000
 
diag: Algorithm                                     = D&C
diag: Parallel over k                               =   F
diag: Use parallel 2D distribution                  =   T
diag: Parallel block-size                           = 20
diag: Parallel distribution                         =     8 x     8
diag: Used triangular part                          = Lower
diag: Absolute tolerance                            =  0.100E-15
diag: Orthogonalization factor                      =  0.100E-05
diag: Memory factor                                 =  1.0000
 
siesta: Constraint v=[  0.00000,  0.00000,  1.00000] (148): center-dir
  [ 1 -- 148 ]
 
 
ts: **************************************************************
ts: Save H and S matrices                           =    F
ts: Save DM and EDM matrices                        =    F
ts: Only save the overlap matrix S                  =    F
ts: **************************************************************
 
************************ Begin: TS CHECKS AND WARNINGS ************************
************************ End: TS CHECKS AND WARNINGS **************************


                     ====================================
                        Begin CG opt. move =      0
                     ====================================

outcell: Unit cell vectors (Ang):
       14.912957   -1.230000    0.000000
        8.521690   12.300000    0.000000
        0.000000    0.000000   40.000000

outcell: Cell vector modules (Ang)   :   14.963596   14.963596   40.000000
outcell: Cell angles (23,13,12) (deg):     90.0000     90.0000     60.0000
outcell: Cell volume (Ang**3)        :   7756.4422
<dSpData1D:S at geom step 0
  <sparsity:sparsity for geom step 0
    nrows_g=1332 nrows=40 sparsity=.0217 nnzs=38490, refcount: 7>
  <dData1D:(new from dSpData1D) n=38490, refcount: 1>
refcount: 1>
new_DM -- step:     1
Initializing Density Matrix...
 
Attempting to read DM from file... Failed...
DM filled with atomic data:
<dSpData2D:DM initialized from atoms
  <sparsity:sparsity for geom step 0
    nrows_g=1332 nrows=40 sparsity=.0217 nnzs=38490, refcount: 8>
  <dData2D:DM n=38490 m=1, refcount: 1>
refcount: 1>
No. of atoms with KB's overlaping orbs in proc 0. Max # of overlaps:      93     231

InitMesh: MESH = 144 x 144 x 432 = 8957952
InitMesh: Mesh cutoff (required, used) =   300.000   322.366 Ry
New grid distribution [1]: sub = 2
New grid distribution [2]: sub = 2
New grid distribution [3]: sub = 2
Setting up quadratic distribution...

stepf: Fermi-Dirac step function

siesta: Program's energy decomposition (eV):
siesta: Ebs     =     -8651.378733
siesta: Eions   =     41759.932744
siesta: Ena     =      9221.624460
siesta: Ekin    =     16306.291377
siesta: Enl     =      -733.827415
siesta: Eso     =         0.000000
siesta: Edftu   =         0.000000
siesta: DEna    =      1252.555222
siesta: DUscf   =        80.144925
siesta: DUext   =         0.000000
siesta: Ex      =     -7801.378651
siesta: Ec      =      -752.370332
siesta: Exc     =     -8553.748983
siesta: EbV     =         0.000000
siesta: eta*DQ  =         0.000000
siesta: Emadel  =         0.000000
siesta: Emeta   =         0.000000
siesta: Emolmec =         0.000000
siesta: Ekinion =         0.000000
siesta: Eharris =    -24774.111004
siesta: Etot    =    -24186.893160
siesta: FreeEng =    -24186.893160

        iscf     Eharris(eV)        E_KS(eV)     FreeEng(eV)     dDmax    Ef(eV) dHmax(eV)
   scf:    1   -24774.111004   -24186.893160   -24186.893160  1.204080 -1.633665  4.741603
timer: Routine,Calls,Time,% = IterSCF        1       1.679  42.16
   scf:    2   -24193.413831   -24190.196576   -24190.196576  0.008884 -2.050747  3.995175
   scf:    3   -24205.411534   -24198.844851   -24198.844851  0.047394 -4.248143  0.292747
   scf:    4   -24199.171478   -24199.042634   -24199.042634  0.008993 -4.563539  0.172710
   scf:    5   -24199.004583   -24199.040982   -24199.040982  0.002886 -4.397302  0.192995
   scf:    6   -24199.062837   -24199.052803   -24199.052803  0.000875 -4.435440  0.112353
   scf:    7   -24199.061919   -24199.057948   -24199.057948  0.001104 -4.471865  0.036959
   scf:    8   -24199.058790   -24199.058550   -24199.058550  0.000144 -4.476785  0.019000
   scf:    9   -24199.058778   -24199.058699   -24199.058699  0.000300 -4.489966  0.003516
   scf:   10   -24199.058719   -24199.058712   -24199.058712  0.000089 -4.487575  0.000556

SCF Convergence by DM+H criterion
max |DM_out - DM_in|         :     0.0000892805
max |H_out - H_in|      (eV) :     0.0005560888
SCF cycle converged after 10 iterations

Using DM_out to compute the final energy and forces
No. of atoms with KB's overlaping orbs in proc 0. Max # of overlaps:      93     231
System symmetry is of type slab but no DFTD3.Periodic list was found. Attempting to guess symmetry for D3.
Could not guess the right amount of periodicity directions for D3.
Enabling periodicity on all directions.

siesta: E_KS(eV) =           -24213.7878

siesta: E_KS - E_eggbox =    -24213.7878

siesta: Atomic forces (eV/Ang):
----------------------------------------
   Tot    0.000307    0.000278   -0.000915
----------------------------------------
   Max    0.723734
   Res    0.168497    sqrt( Sum f_i^2 / 3N )
----------------------------------------
   Max    0.723734    constrained

Stress tensor Voigt[x,y,z,yz,xz,xy] (kbar):      -24.84      -24.82       -4.87       -0.00       -0.00       -0.00
(Free)E + p*V (eV/cell)   -24125.7934
Target enthalpy (eV/cell)   -24213.7878

                     ====================================
                        Begin CG opt. move =      1
                     ====================================

outcell: Unit cell vectors (Ang):
       14.912957   -1.230000    0.000000
        8.521690   12.300000    0.000000
        0.000000    0.000000   40.000000

outcell: Cell vector modules (Ang)   :   14.963596   14.963596   40.000000
outcell: Cell angles (23,13,12) (deg):     90.0000     90.0000     60.0000
outcell: Cell volume (Ang**3)        :   7756.4422
<dSpData1D:S at geom step 1
  <sparsity:sparsity for geom step 1
    nrows_g=1332 nrows=40 sparsity=.0217 nnzs=38472, refcount: 7>
  <dData1D:(new from dSpData1D) n=38472, refcount: 1>
refcount: 1>
new_DM -- step:     2
Re-using DM from previous geometries...
Number of DMs in history: 1
 DM extrapolation coefficients: 
1   1.00000
New DM after history re-use:
<dSpData2D:SpM extrapolated using coords
  <sparsity:sparsity for geom step 1
    nrows_g=1332 nrows=40 sparsity=.0217 nnzs=38472, refcount: 9>
  <dData2D:(temp array for extrapolation) n=38472 m=1, refcount: 1>
refcount: 1>
No. of atoms with KB's overlaping orbs in proc 0. Max # of overlaps:      93     231

InitMesh: MESH = 144 x 144 x 432 = 8957952
InitMesh: Mesh cutoff (required, used) =   300.000   322.366 Ry
New grid distribution [1]: sub = 2
New grid distribution [2]: sub = 2
New grid distribution [3]: sub = 2
Setting up quadratic distribution...

        iscf     Eharris(eV)        E_KS(eV)     FreeEng(eV)     dDmax    Ef(eV) dHmax(eV)
   scf:    1   -24214.252520   -24213.812503   -24213.812503  0.029001 -4.493690  0.671354
   scf:    2   -24210.461721   -24212.803712   -24212.803712  0.034362 -4.544161  2.570092
   scf:    3   -24214.065456   -24213.877929   -24213.877929  0.027448 -4.493638  0.071136
   scf:    4   -24213.881305   -24213.880027   -24213.880027  0.001357 -4.493530  0.026019
   scf:    5   -24213.881176   -24213.880656   -24213.880656  0.000852 -4.493500  0.007915
   scf:    6   -24213.880794   -24213.880732   -24213.880732  0.000264 -4.493527  0.004289
   scf:    7   -24213.880760   -24213.880749   -24213.880749  0.000129 -4.493511  0.000906
   scf:    8   -24213.880752   -24213.880750   -24213.880750  0.000031 -4.493506  0.000446

SCF Convergence by DM+H criterion
max |DM_out - DM_in|         :     0.0000312404
max |H_out - H_in|      (eV) :     0.0004457813
SCF cycle converged after 8 iterations

Using DM_out to compute the final energy and forces
No. of atoms with KB's overlaping orbs in proc 0. Max # of overlaps:      93     231
System symmetry is of type slab but no DFTD3.Periodic list was found. Attempting to guess symmetry for D3.
Could not guess the right amount of periodicity directions for D3.
Enabling periodicity on all directions.

siesta: E_KS(eV) =           -24213.8732

siesta: Atomic forces (eV/Ang):
----------------------------------------
   Tot    0.000487    0.000194   -0.005468
----------------------------------------
   Max    0.615328
   Res    0.174867    sqrt( Sum f_i^2 / 3N )
----------------------------------------
   Max    0.615328    constrained

Stress tensor Voigt[x,y,z,yz,xz,xy] (kbar):      -24.80      -25.01       -4.89       -0.00       -0.00       -0.01
(Free)E + p*V (eV/cell)   -24125.5986
Target enthalpy (eV/cell)   -24213.8732

                     ====================================
                        Begin CG opt. move =      2
                     ====================================

outcell: Unit cell vectors (Ang):
       14.912957   -1.230000    0.000000
        8.521690   12.300000    0.000000
        0.000000    0.000000   40.000000

outcell: Cell vector modules (Ang)   :   14.963596   14.963596   40.000000
outcell: Cell angles (23,13,12) (deg):     90.0000     90.0000     60.0000
outcell: Cell volume (Ang**3)        :   7756.4422
<dSpData1D:S at geom step 2
  <sparsity:sparsity for geom step 2
    nrows_g=1332 nrows=40 sparsity=.0217 nnzs=38487, refcount: 7>
  <dData1D:(new from dSpData1D) n=38487, refcount: 1>
refcount: 1>
new_DM -- step:     3
Re-using DM from previous geometries...
Number of DMs in history: 1
 DM extrapolation coefficients: 
1   1.00000
New DM after history re-use:
<dSpData2D:SpM extrapolated using coords
  <sparsity:sparsity for geom step 2
    nrows_g=1332 nrows=40 sparsity=.0217 nnzs=38487, refcount: 9>
  <dData2D:(temp array for extrapolation) n=38487 m=1, refcount: 1>
refcount: 1>
No. of atoms with KB's overlaping orbs in proc 0. Max # of overlaps:      93     231

InitMesh: MESH = 144 x 144 x 432 = 8957952
InitMesh: Mesh cutoff (required, used) =   300.000   322.366 Ry
New grid distribution [1]: sub = 2
New grid distribution [2]: sub = 2
New grid distribution [3]: sub = 2
Setting up quadratic distribution...

        iscf     Eharris(eV)        E_KS(eV)     FreeEng(eV)     dDmax    Ef(eV) dHmax(eV)
   scf:    1   -24214.133995   -24214.039470   -24214.039470  0.013068 -4.486598  0.089920
   scf:    2   -24213.961886   -24214.017102   -24214.017102  0.006952 -4.487528  0.303575
   scf:    3   -24214.046072   -24214.042122   -24214.042122  0.005356 -4.486530  0.018165
   scf:    4   -24214.042667   -24214.042437   -24214.042437  0.000569 -4.486429  0.010034
   scf:    5   -24214.042633   -24214.042546   -24214.042546  0.000402 -4.486347  0.001777
   scf:    6   -24214.042559   -24214.042553   -24214.042553  0.000088 -4.486343  0.000405

SCF Convergence by DM+H criterion
max |DM_out - DM_in|         :     0.0000882357
max |H_out - H_in|      (eV) :     0.0004053628
SCF cycle converged after 6 iterations

Using DM_out to compute the final energy and forces
No. of atoms with KB's overlaping orbs in proc 0. Max # of overlaps:      93     231
System symmetry is of type slab but no DFTD3.Periodic list was found. Attempting to guess symmetry for D3.
Could not guess the right amount of periodicity directions for D3.
Enabling periodicity on all directions.

siesta: E_KS(eV) =           -24214.0457

siesta: Atomic forces (eV/Ang):
----------------------------------------
   Tot    0.000912    0.000275   -0.002461
----------------------------------------
   Max    0.228350
   Res    0.060286    sqrt( Sum f_i^2 / 3N )
----------------------------------------
   Max    0.228350    constrained

Stress tensor Voigt[x,y,z,yz,xz,xy] (kbar):      -24.85      -24.97       -4.97        0.00       -0.00       -0.01
(Free)E + p*V (eV/cell)   -24125.6277
Target enthalpy (eV/cell)   -24214.0457

cgvc: Finished line minimization    1.  Mean atomic displacement =    0.0226

                     ====================================
                        Begin CG opt. move =      3
                     ====================================

outcell: Unit cell vectors (Ang):
       14.912957   -1.230000    0.000000
        8.521690   12.300000    0.000000
        0.000000    0.000000   40.000000

outcell: Cell vector modules (Ang)   :   14.963596   14.963596   40.000000
outcell: Cell angles (23,13,12) (deg):     90.0000     90.0000     60.0000
outcell: Cell volume (Ang**3)        :   7756.4422
Gamma-point calculation with multiply-connected orbital pairs
Folding of H and S implicitly performed
<dSpData1D:S at geom step 3
  <sparsity:sparsity for geom step 3
    nrows_g=1332 nrows=40 sparsity=.0218 nnzs=38678, refcount: 7>
  <dData1D:(new from dSpData1D) n=38678, refcount: 1>
refcount: 1>
new_DM -- step:     4
Re-using DM from previous geometries...
Number of DMs in history: 1
 DM extrapolation coefficients: 
1   1.00000
New DM after history re-use:
<dSpData2D:SpM extrapolated using coords
  <sparsity:sparsity for geom step 3
    nrows_g=1332 nrows=40 sparsity=.0218 nnzs=38678, refcount: 9>
  <dData2D:(temp array for extrapolation) n=38678 m=1, refcount: 1>
refcount: 1>
No. of atoms with KB's overlaping orbs in proc 0. Max # of overlaps:      94     237

InitMesh: MESH = 144 x 144 x 432 = 8957952
InitMesh: Mesh cutoff (required, used) =   300.000   322.366 Ry
New grid distribution [1]: sub = 2
New grid distribution [2]: sub = 2
New grid distribution [3]: sub = 2
Setting up quadratic distribution...

        iscf     Eharris(eV)        E_KS(eV)     FreeEng(eV)     dDmax    Ef(eV) dHmax(eV)
   scf:    1   -24213.600702   -24213.681175   -24213.681175  0.022410 -4.366779  0.344916
   scf:    2   -24213.090764   -24213.521615   -24213.521615  0.029690 -4.375436  1.037770
   scf:    3   -24213.740679   -24213.713934   -24213.713934  0.022509 -4.367345  0.080684
   scf:    4   -24213.720457   -24213.718161   -24213.718161  0.003342 -4.367404  0.022215
   scf:    5   -24213.719262   -24213.718780   -24213.718780  0.000419 -4.367482  0.006218
   scf:    6   -24213.718938   -24213.718868   -24213.718868  0.000240 -4.367490  0.002563
   scf:    7   -24213.718887   -24213.718879   -24213.718879  0.000074 -4.367486  0.001550
   scf:    8   -24213.718883   -24213.718881   -24213.718881  0.000042 -4.367477  0.000601

SCF Convergence by DM+H criterion
max |DM_out - DM_in|         :     0.0000415816
max |H_out - H_in|      (eV) :     0.0006008147
SCF cycle converged after 8 iterations

Using DM_out to compute the final energy and forces
No. of atoms with KB's overlaping orbs in proc 0. Max # of overlaps:      94     237
System symmetry is of type slab but no DFTD3.Periodic list was found. Attempting to guess symmetry for D3.
Could not guess the right amount of periodicity directions for D3.
Enabling periodicity on all directions.

siesta: E_KS(eV) =           -24213.7070

siesta: Atomic forces (eV/Ang):
----------------------------------------
   Tot   -0.000977    0.000262   -0.003032
----------------------------------------
   Max    1.761716
   Res    0.430146    sqrt( Sum f_i^2 / 3N )
----------------------------------------
   Max    1.761710    constrained

Stress tensor Voigt[x,y,z,yz,xz,xy] (kbar):      -25.75      -24.50       -4.96        0.01       -0.00        0.09
(Free)E + p*V (eV/cell)   -24124.6205
Target enthalpy (eV/cell)   -24213.7070

                     ====================================
                        Begin CG opt. move =      4
                     ====================================

outcell: Unit cell vectors (Ang):
       14.912957   -1.230000    0.000000
        8.521690   12.300000    0.000000
        0.000000    0.000000   40.000000

outcell: Cell vector modules (Ang)   :   14.963596   14.963596   40.000000
outcell: Cell angles (23,13,12) (deg):     90.0000     90.0000     60.0000
outcell: Cell volume (Ang**3)        :   7756.4422
<dSpData1D:S at geom step 4
  <sparsity:sparsity for geom step 4
    nrows_g=1332 nrows=40 sparsity=.0217 nnzs=38451, refcount: 7>
  <dData1D:(new from dSpData1D) n=38451, refcount: 1>
refcount: 1>
new_DM -- step:     5
Re-using DM from previous geometries...
Number of DMs in history: 1
 DM extrapolation coefficients: 
1   1.00000
New DM after history re-use:
<dSpData2D:SpM extrapolated using coords
  <sparsity:sparsity for geom step 4
    nrows_g=1332 nrows=40 sparsity=.0217 nnzs=38451, refcount: 9>
  <dData2D:(temp array for extrapolation) n=38451 m=1, refcount: 1>
refcount: 1>
No. of atoms with KB's overlaping orbs in proc 0. Max # of overlaps:      93     231

InitMesh: MESH = 144 x 144 x 432 = 8957952
InitMesh: Mesh cutoff (required, used) =   300.000   322.366 Ry
New grid distribution [1]: sub = 2
New grid distribution [2]: sub = 2
New grid distribution [3]: sub = 2
Setting up quadratic distribution...

        iscf     Eharris(eV)        E_KS(eV)     FreeEng(eV)     dDmax    Ef(eV) dHmax(eV)
   scf:    1   -24214.084505   -24214.025381   -24214.025381  0.014778 -4.485042  0.267302
   scf:    2   -24213.573815   -24213.900511   -24213.900511  0.022691 -4.491141  0.913509
   scf:    3   -24214.066461   -24214.046946   -24214.046946  0.017339 -4.485966  0.065380
   scf:    4   -24214.051595   -24214.050029   -24214.050029  0.002836 -4.485996  0.017134
   scf:    5   -24214.050745   -24214.050431   -24214.050431  0.000340 -4.486120  0.004199
   scf:    6   -24214.050512   -24214.050477   -24214.050477  0.000165 -4.486155  0.001814
   scf:    7   -24214.050485   -24214.050481   -24214.050481  0.000048 -4.486154  0.001159
   scf:    8   -24214.050484   -24214.050483   -24214.050483  0.000032 -4.486160  0.000428

SCF Convergence by DM+H criterion
max |DM_out - DM_in|         :     0.0000323573
max |H_out - H_in|      (eV) :     0.0004277137
SCF cycle converged after 8 iterations

Using DM_out to compute the final energy and forces
No. of atoms with KB's overlaping orbs in proc 0. Max # of overlaps:      93     231
System symmetry is of type slab but no DFTD3.Periodic list was found. Attempting to guess symmetry for D3.
Could not guess the right amount of periodicity directions for D3.
Enabling periodicity on all directions.

siesta: E_KS(eV) =           -24214.0603

siesta: Atomic forces (eV/Ang):
----------------------------------------
   Tot    0.000201   -0.000789   -0.003532
----------------------------------------
   Max    0.167164
   Res    0.054601    sqrt( Sum f_i^2 / 3N )
----------------------------------------
   Max    0.167164    constrained

Stress tensor Voigt[x,y,z,yz,xz,xy] (kbar):      -24.98      -24.85       -4.97       -0.00       -0.00        0.01
(Free)E + p*V (eV/cell)   -24125.6109
Target enthalpy (eV/cell)   -24214.0603

cgvc: Finished line minimization    2.  Mean atomic displacement =    0.0039

                     ====================================
                        Begin CG opt. move =      5
                     ====================================

outcell: Unit cell vectors (Ang):
       14.912957   -1.230000    0.000000
        8.521690   12.300000    0.000000
        0.000000    0.000000   40.000000

outcell: Cell vector modules (Ang)   :   14.963596   14.963596   40.000000
outcell: Cell angles (23,13,12) (deg):     90.0000     90.0000     60.0000
outcell: Cell volume (Ang**3)        :   7756.4422
<dSpData1D:S at geom step 5
  <sparsity:sparsity for geom step 5
    nrows_g=1332 nrows=40 sparsity=.0217 nnzs=38430, refcount: 7>
  <dData1D:(new from dSpData1D) n=38430, refcount: 1>
refcount: 1>
new_DM -- step:     6
Re-using DM from previous geometries...
Number of DMs in history: 1
 DM extrapolation coefficients: 
1   1.00000
New DM after history re-use:
<dSpData2D:SpM extrapolated using coords
  <sparsity:sparsity for geom step 5
    nrows_g=1332 nrows=40 sparsity=.0217 nnzs=38430, refcount: 9>
  <dData2D:(temp array for extrapolation) n=38430 m=1, refcount: 1>
refcount: 1>
No. of atoms with KB's overlaping orbs in proc 0. Max # of overlaps:      93     231

InitMesh: MESH = 144 x 144 x 432 = 8957952
InitMesh: Mesh cutoff (required, used) =   300.000   322.366 Ry
New grid distribution [1]: sub = 2
New grid distribution [2]: sub = 2
New grid distribution [3]: sub = 2
Setting up quadratic distribution...

        iscf     Eharris(eV)        E_KS(eV)     FreeEng(eV)     dDmax    Ef(eV) dHmax(eV)
   scf:    1   -24214.089775   -24214.078459   -24214.078459  0.002533 -4.491976  0.012011
   scf:    2   -24214.077045   -24214.078116   -24214.078116  0.001208 -4.492115  0.037631
   scf:    3   -24214.078652   -24214.078591   -24214.078591  0.000890 -4.491991  0.004097
   scf:    4   -24214.078632   -24214.078615   -24214.078615  0.000118 -4.491967  0.001806
   scf:    5   -24214.078624   -24214.078620   -24214.078620  0.000062 -4.491975  0.000486

SCF Convergence by DM+H criterion
max |DM_out - DM_in|         :     0.0000623612
max |H_out - H_in|      (eV) :     0.0004858291
SCF cycle converged after 5 iterations

Using DM_out to compute the final energy and forces
No. of atoms with KB's overlaping orbs in proc 0. Max # of overlaps:      93     231
System symmetry is of type slab but no DFTD3.Periodic list was found. Attempting to guess symmetry for D3.
Could not guess the right amount of periodicity directions for D3.
Enabling periodicity on all directions.

siesta: E_KS(eV) =           -24214.0758

siesta: Atomic forces (eV/Ang):
----------------------------------------
   Tot    0.000123    0.000009   -0.002491
----------------------------------------
   Max    0.110473
   Res    0.032759    sqrt( Sum f_i^2 / 3N )
----------------------------------------
   Max    0.110473    constrained

Stress tensor Voigt[x,y,z,yz,xz,xy] (kbar):      -24.95      -24.91       -4.97       -0.00        0.00        0.00
(Free)E + p*V (eV/cell)   -24125.6025
Target enthalpy (eV/cell)   -24214.0758

                     ====================================
                        Begin CG opt. move =      6
                     ====================================

outcell: Unit cell vectors (Ang):
       14.912957   -1.230000    0.000000
        8.521690   12.300000    0.000000
        0.000000    0.000000   40.000000

outcell: Cell vector modules (Ang)   :   14.963596   14.963596   40.000000
outcell: Cell angles (23,13,12) (deg):     90.0000     90.0000     60.0000
outcell: Cell volume (Ang**3)        :   7756.4422
<dSpData1D:S at geom step 6
  <sparsity:sparsity for geom step 6
    nrows_g=1332 nrows=40 sparsity=.0217 nnzs=38435, refcount: 7>
  <dData1D:(new from dSpData1D) n=38435, refcount: 1>
refcount: 1>
new_DM -- step:     7
Re-using DM from previous geometries...
Number of DMs in history: 1
 DM extrapolation coefficients: 
1   1.00000
New DM after history re-use:
<dSpData2D:SpM extrapolated using coords
  <sparsity:sparsity for geom step 6
    nrows_g=1332 nrows=40 sparsity=.0217 nnzs=38435, refcount: 9>
  <dData2D:(temp array for extrapolation) n=38435 m=1, refcount: 1>
refcount: 1>
No. of atoms with KB's overlaping orbs in proc 0. Max # of overlaps:      93     231

InitMesh: MESH = 144 x 144 x 432 = 8957952
InitMesh: Mesh cutoff (required, used) =   300.000   322.366 Ry
New grid distribution [1]: sub = 2
New grid distribution [2]: sub = 2
New grid distribution [3]: sub = 2
Setting up quadratic distribution...

        iscf     Eharris(eV)        E_KS(eV)     FreeEng(eV)     dDmax    Ef(eV) dHmax(eV)
   scf:    1   -24214.103362   -24214.084081   -24214.084081  0.004066 -4.497702  0.020704
   scf:    2   -24214.079884   -24214.083043   -24214.083043  0.002002 -4.498026  0.067315
   scf:    3   -24214.084627   -24214.084445   -24214.084445  0.001477 -4.497746  0.006608
   scf:    4   -24214.084552   -24214.084507   -24214.084507  0.000202 -4.497719  0.002941
   scf:    5   -24214.084533   -24214.084522   -24214.084522  0.000101 -4.497749  0.000779
   scf:    6   -24214.084524   -24214.084523   -24214.084523  0.000025 -4.497761  0.000175

SCF Convergence by DM+H criterion
max |DM_out - DM_in|         :     0.0000248247
max |H_out - H_in|      (eV) :     0.0001750395
SCF cycle converged after 6 iterations

Using DM_out to compute the final energy and forces
No. of atoms with KB's overlaping orbs in proc 0. Max # of overlaps:      93     231
System symmetry is of type slab but no DFTD3.Periodic list was found. Attempting to guess symmetry for D3.
Could not guess the right amount of periodicity directions for D3.
Enabling periodicity on all directions.

siesta: E_KS(eV) =           -24214.0801

siesta: Atomic forces (eV/Ang):
----------------------------------------
   Tot    0.000176   -0.000281   -0.003124
----------------------------------------
   Max    0.138955
   Res    0.042210    sqrt( Sum f_i^2 / 3N )
----------------------------------------
   Max    0.138955    constrained

Stress tensor Voigt[x,y,z,yz,xz,xy] (kbar):      -24.88      -24.99       -4.96        0.00       -0.00       -0.01
(Free)E + p*V (eV/cell)   -24125.5913
Target enthalpy (eV/cell)   -24214.0801

                     ====================================
                        Begin CG opt. move =      7
                     ====================================

outcell: Unit cell vectors (Ang):
       14.912957   -1.230000    0.000000
        8.521690   12.300000    0.000000
        0.000000    0.000000   40.000000

outcell: Cell vector modules (Ang)   :   14.963596   14.963596   40.000000
outcell: Cell angles (23,13,12) (deg):     90.0000     90.0000     60.0000
outcell: Cell volume (Ang**3)        :   7756.4422
<dSpData1D:S at geom step 7
  <sparsity:sparsity for geom step 7
    nrows_g=1332 nrows=40 sparsity=.0217 nnzs=38435, refcount: 7>
  <dData1D:(new from dSpData1D) n=38435, refcount: 1>
refcount: 1>
new_DM -- step:     8
Re-using DM from previous geometries...
Number of DMs in history: 1
 DM extrapolation coefficients: 
1   1.00000
New DM after history re-use:
<dSpData2D:SpM extrapolated using coords
  <sparsity:sparsity for geom step 7
    nrows_g=1332 nrows=40 sparsity=.0217 nnzs=38435, refcount: 9>
  <dData2D:(temp array for extrapolation) n=38435 m=1, refcount: 1>
refcount: 1>
No. of atoms with KB's overlaping orbs in proc 0. Max # of overlaps:      93     231

InitMesh: MESH = 144 x 144 x 432 = 8957952
InitMesh: Mesh cutoff (required, used) =   300.000   322.366 Ry
New grid distribution [1]: sub = 2
New grid distribution [2]: sub = 2
New grid distribution [3]: sub = 2
Setting up quadratic distribution...

        iscf     Eharris(eV)        E_KS(eV)     FreeEng(eV)     dDmax    Ef(eV) dHmax(eV)
   scf:    1   -24214.076448   -24214.079966   -24214.079966  0.001753 -4.496106  0.006586
   scf:    2   -24214.079587   -24214.079875   -24214.079875  0.000618 -4.496011  0.018671
   scf:    3   -24214.080021   -24214.080003   -24214.080003  0.000452 -4.496089  0.002121
   scf:    4   -24214.080014   -24214.080010   -24214.080010  0.000056 -4.496094  0.000960

SCF Convergence by DM+H criterion
max |DM_out - DM_in|         :     0.0000556568
max |H_out - H_in|      (eV) :     0.0009601644
SCF cycle converged after 4 iterations

Using DM_out to compute the final energy and forces
No. of atoms with KB's overlaping orbs in proc 0. Max # of overlaps:      93     231
System symmetry is of type slab but no DFTD3.Periodic list was found. Attempting to guess symmetry for D3.
Could not guess the right amount of periodicity directions for D3.
Enabling periodicity on all directions.

siesta: E_KS(eV) =           -24214.0815

siesta: Atomic forces (eV/Ang):
----------------------------------------
   Tot   -0.000015    0.000061   -0.003450
----------------------------------------
   Max    0.105575
   Res    0.032229    sqrt( Sum f_i^2 / 3N )
----------------------------------------
   Max    0.105575    constrained

Stress tensor Voigt[x,y,z,yz,xz,xy] (kbar):      -24.91      -24.97       -4.96        0.00       -0.00       -0.00
(Free)E + p*V (eV/cell)   -24125.5927
Target enthalpy (eV/cell)   -24214.0815

cgvc: Finished line minimization    3.  Mean atomic displacement =    0.0080

                     ====================================
                        Begin CG opt. move =      8
                     ====================================

outcell: Unit cell vectors (Ang):
       14.912957   -1.230000    0.000000
        8.521690   12.300000    0.000000
        0.000000    0.000000   40.000000

outcell: Cell vector modules (Ang)   :   14.963596   14.963596   40.000000
outcell: Cell angles (23,13,12) (deg):     90.0000     90.0000     60.0000
outcell: Cell volume (Ang**3)        :   7756.4422
<dSpData1D:S at geom step 8
  <sparsity:sparsity for geom step 8
    nrows_g=1332 nrows=40 sparsity=.0217 nnzs=38460, refcount: 7>
  <dData1D:(new from dSpData1D) n=38460, refcount: 1>
refcount: 1>
new_DM -- step:     9
Re-using DM from previous geometries...
Number of DMs in history: 1
 DM extrapolation coefficients: 
1   1.00000
New DM after history re-use:
<dSpData2D:SpM extrapolated using coords
  <sparsity:sparsity for geom step 8
    nrows_g=1332 nrows=40 sparsity=.0217 nnzs=38460, refcount: 9>
  <dData2D:(temp array for extrapolation) n=38460 m=1, refcount: 1>
refcount: 1>
No. of atoms with KB's overlaping orbs in proc 0. Max # of overlaps:      93     231

InitMesh: MESH = 144 x 144 x 432 = 8957952
InitMesh: Mesh cutoff (required, used) =   300.000   322.366 Ry
New grid distribution [1]: sub = 2
New grid distribution [2]: sub = 2
New grid distribution [3]: sub = 2
Setting up quadratic distribution...

        iscf     Eharris(eV)        E_KS(eV)     FreeEng(eV)     dDmax    Ef(eV) dHmax(eV)
   scf:    1   -24214.072915   -24214.067773   -24214.067773  0.004504 -4.497242  0.130600
   scf:    2   -24213.988787   -24214.048230   -24214.048230  0.013001 -4.497523  0.272631
   scf:    3   -24214.083063   -24214.074724   -24214.074724  0.008798 -4.497299  0.009134
   scf:    4   -24214.074932   -24214.074840   -24214.074840  0.000207 -4.497346  0.004947
   scf:    5   -24214.074918   -24214.074885   -24214.074885  0.000097 -4.497394  0.001564
   scf:    6   -24214.074895   -24214.074891   -24214.074891  0.000050 -4.497415  0.000492

SCF Convergence by DM+H criterion
max |DM_out - DM_in|         :     0.0000496646
max |H_out - H_in|      (eV) :     0.0004923188
SCF cycle converged after 6 iterations

Using DM_out to compute the final energy and forces
No. of atoms with KB's overlaping orbs in proc 0. Max # of overlaps:      93     231
System symmetry is of type slab but no DFTD3.Periodic list was found. Attempting to guess symmetry for D3.
Could not guess the right amount of periodicity directions for D3.
Enabling periodicity on all directions.

siesta: E_KS(eV) =           -24214.0660

siesta: Atomic forces (eV/Ang):
----------------------------------------
   Tot    0.000154   -0.001247   -0.002923
----------------------------------------
   Max    0.445530
   Res    0.110983    sqrt( Sum f_i^2 / 3N )
----------------------------------------
   Max    0.445539    constrained

Stress tensor Voigt[x,y,z,yz,xz,xy] (kbar):      -25.08      -24.84       -4.94       -0.00        0.00        0.02
(Free)E + p*V (eV/cell)   -24125.5382
Target enthalpy (eV/cell)   -24214.0660

                     ====================================
                        Begin CG opt. move =      9
                     ====================================

outcell: Unit cell vectors (Ang):
       14.912957   -1.230000    0.000000
        8.521690   12.300000    0.000000
        0.000000    0.000000   40.000000

outcell: Cell vector modules (Ang)   :   14.963596   14.963596   40.000000
outcell: Cell angles (23,13,12) (deg):     90.0000     90.0000     60.0000
outcell: Cell volume (Ang**3)        :   7756.4422
<dSpData1D:S at geom step 9
  <sparsity:sparsity for geom step 9
    nrows_g=1332 nrows=40 sparsity=.0217 nnzs=38435, refcount: 7>
  <dData1D:(new from dSpData1D) n=38435, refcount: 1>
refcount: 1>
new_DM -- step:    10
Re-using DM from previous geometries...
Number of DMs in history: 1
 DM extrapolation coefficients: 
1   1.00000
New DM after history re-use:
<dSpData2D:SpM extrapolated using coords
  <sparsity:sparsity for geom step 9
    nrows_g=1332 nrows=40 sparsity=.0217 nnzs=38435, refcount: 9>
  <dData2D:(temp array for extrapolation) n=38435 m=1, refcount: 1>
refcount: 1>
No. of atoms with KB's overlaping orbs in proc 0. Max # of overlaps:      93     231

InitMesh: MESH = 144 x 144 x 432 = 8957952
InitMesh: Mesh cutoff (required, used) =   300.000   322.366 Ry
New grid distribution [1]: sub = 2
New grid distribution [2]: sub = 2
New grid distribution [3]: sub = 2
Setting up quadratic distribution...

        iscf     Eharris(eV)        E_KS(eV)     FreeEng(eV)     dDmax    Ef(eV) dHmax(eV)
   scf:    1   -24214.060714   -24214.076635   -24214.076635  0.003056 -4.498672  0.088464
   scf:    2   -24214.041238   -24214.067879   -24214.067879  0.008805 -4.498864  0.186225
   scf:    3   -24214.083478   -24214.079753   -24214.079753  0.005949 -4.498695  0.006172
   scf:    4   -24214.079848   -24214.079806   -24214.079806  0.000135 -4.498658  0.003504
   scf:    5   -24214.079845   -24214.079828   -24214.079828  0.000070 -4.498633  0.001073
   scf:    6   -24214.079833   -24214.079831   -24214.079831  0.000036 -4.498622  0.000311

SCF Convergence by DM+H criterion
max |DM_out - DM_in|         :     0.0000358321
max |H_out - H_in|      (eV) :     0.0003107078
SCF cycle converged after 6 iterations

Using DM_out to compute the final energy and forces
No. of atoms with KB's overlaping orbs in proc 0. Max # of overlaps:      93     231
System symmetry is of type slab but no DFTD3.Periodic list was found. Attempting to guess symmetry for D3.
Could not guess the right amount of periodicity directions for D3.
Enabling periodicity on all directions.

siesta: E_KS(eV) =           -24214.0859

siesta: Atomic forces (eV/Ang):
----------------------------------------
   Tot    0.000063    0.000101   -0.003258
----------------------------------------
   Max    0.106702
   Res    0.028151    sqrt( Sum f_i^2 / 3N )
----------------------------------------
   Max    0.106702    constrained

Stress tensor Voigt[x,y,z,yz,xz,xy] (kbar):      -24.96      -24.92       -4.96       -0.00       -0.00        0.00
(Free)E + p*V (eV/cell)   -24125.5938
Target enthalpy (eV/cell)   -24214.0859

cgvc: Finished line minimization    4.  Mean atomic displacement =    0.0026

                     ====================================
                        Begin CG opt. move =     10
                     ====================================

outcell: Unit cell vectors (Ang):
       14.912957   -1.230000    0.000000
        8.521690   12.300000    0.000000
        0.000000    0.000000   40.000000

outcell: Cell vector modules (Ang)   :   14.963596   14.963596   40.000000
outcell: Cell angles (23,13,12) (deg):     90.0000     90.0000     60.0000
outcell: Cell volume (Ang**3)        :   7756.4422
<dSpData1D:S at geom step 10
  <sparsity:sparsity for geom step 10
    nrows_g=1332 nrows=40 sparsity=.0217 nnzs=38435, refcount: 7>
  <dData1D:(new from dSpData1D) n=38435, refcount: 1>
refcount: 1>
new_DM -- step:    11
Re-using DM from previous geometries...
Number of DMs in history: 1
 DM extrapolation coefficients: 
1   1.00000
New DM after history re-use:
<dSpData2D:SpM extrapolated using coords
  <sparsity:sparsity for geom step 10
    nrows_g=1332 nrows=40 sparsity=.0217 nnzs=38435, refcount: 9>
  <dData2D:(temp array for extrapolation) n=38435 m=1, refcount: 1>
refcount: 1>
No. of atoms with KB's overlaping orbs in proc 0. Max # of overlaps:      93     231

InitMesh: MESH = 144 x 144 x 432 = 8957952
InitMesh: Mesh cutoff (required, used) =   300.000   322.366 Ry
New grid distribution [1]: sub = 2
New grid distribution [2]: sub = 2
New grid distribution [3]: sub = 2
Setting up quadratic distribution...

        iscf     Eharris(eV)        E_KS(eV)     FreeEng(eV)     dDmax    Ef(eV) dHmax(eV)
   scf:    1   -24214.105564   -24214.094395   -24214.094395  0.001196 -4.502363  0.018021
   scf:    2   -24214.092371   -24214.093877   -24214.093877  0.001750 -4.501960  0.044534
   scf:    3   -24214.094702   -24214.094548   -24214.094548  0.001258 -4.502268  0.002393
   scf:    4   -24214.094561   -24214.094555   -24214.094555  0.000070 -4.502284  0.001374
   scf:    5   -24214.094561   -24214.094558   -24214.094558  0.000039 -4.502304  0.000325

SCF Convergence by DM+H criterion
max |DM_out - DM_in|         :     0.0000391786
max |H_out - H_in|      (eV) :     0.0003254659
SCF cycle converged after 5 iterations

Using DM_out to compute the final energy and forces
No. of atoms with KB's overlaping orbs in proc 0. Max # of overlaps:      93     231
System symmetry is of type slab but no DFTD3.Periodic list was found. Attempting to guess symmetry for D3.
Could not guess the right amount of periodicity directions for D3.
Enabling periodicity on all directions.

siesta: E_KS(eV) =           -24214.0908

siesta: Atomic forces (eV/Ang):
----------------------------------------
   Tot    0.000311   -0.000055   -0.003740
----------------------------------------
   Max    0.081315
   Res    0.020288    sqrt( Sum f_i^2 / 3N )
----------------------------------------
   Max    0.081315    constrained

Stress tensor Voigt[x,y,z,yz,xz,xy] (kbar):      -24.95      -24.94       -4.95       -0.00       -0.00        0.00
(Free)E + p*V (eV/cell)   -24125.5990
Target enthalpy (eV/cell)   -24214.0908

                     ====================================
                        Begin CG opt. move =     11
                     ====================================

outcell: Unit cell vectors (Ang):
       14.912957   -1.230000    0.000000
        8.521690   12.300000    0.000000
        0.000000    0.000000   40.000000

outcell: Cell vector modules (Ang)   :   14.963596   14.963596   40.000000
outcell: Cell angles (23,13,12) (deg):     90.0000     90.0000     60.0000
outcell: Cell volume (Ang**3)        :   7756.4422
<dSpData1D:S at geom step 11
  <sparsity:sparsity for geom step 11
    nrows_g=1332 nrows=40 sparsity=.0216 nnzs=38410, refcount: 7>
  <dData1D:(new from dSpData1D) n=38410, refcount: 1>
refcount: 1>
new_DM -- step:    12
Re-using DM from previous geometries...
Number of DMs in history: 1
 DM extrapolation coefficients: 
1   1.00000
New DM after history re-use:
<dSpData2D:SpM extrapolated using coords
  <sparsity:sparsity for geom step 11
    nrows_g=1332 nrows=40 sparsity=.0216 nnzs=38410, refcount: 9>
  <dData2D:(temp array for extrapolation) n=38410 m=1, refcount: 1>
refcount: 1>
No. of atoms with KB's overlaping orbs in proc 0. Max # of overlaps:      93     231

InitMesh: MESH = 144 x 144 x 432 = 8957952
InitMesh: Mesh cutoff (required, used) =   300.000   322.366 Ry
New grid distribution [1]: sub = 2
New grid distribution [2]: sub = 2
New grid distribution [3]: sub = 2
Setting up quadratic distribution...

        iscf     Eharris(eV)        E_KS(eV)     FreeEng(eV)     dDmax    Ef(eV) dHmax(eV)
   scf:    1   -24214.114269   -24214.097425   -24214.097425  0.001911 -4.505685  0.028526
   scf:    2   -24214.092249   -24214.096102   -24214.096102  0.002794 -4.505578  0.069512
   scf:    3   -24214.098222   -24214.097820   -24214.097820  0.002003 -4.505650  0.003758
   scf:    4   -24214.097853   -24214.097839   -24214.097839  0.000111 -4.505656  0.002165
   scf:    5   -24214.097852   -24214.097847   -24214.097847  0.000062 -4.505696  0.000510

SCF Convergence by DM+H criterion
max |DM_out - DM_in|         :     0.0000621205
max |H_out - H_in|      (eV) :     0.0005104789
SCF cycle converged after 5 iterations

Using DM_out to compute the final energy and forces
No. of atoms with KB's overlaping orbs in proc 0. Max # of overlaps:      93     231
System symmetry is of type slab but no DFTD3.Periodic list was found. Attempting to guess symmetry for D3.
Could not guess the right amount of periodicity directions for D3.
Enabling periodicity on all directions.

siesta: E_KS(eV) =           -24214.0919

siesta: Atomic forces (eV/Ang):
----------------------------------------
   Tot    0.001184   -0.000182   -0.003709
----------------------------------------
   Max    0.120262
   Res    0.038714    sqrt( Sum f_i^2 / 3N )
----------------------------------------
   Max    0.120261    constrained

Stress tensor Voigt[x,y,z,yz,xz,xy] (kbar):      -24.93      -24.97       -4.93       -0.00       -0.00       -0.00
(Free)E + p*V (eV/cell)   -24125.6048
Target enthalpy (eV/cell)   -24214.0919

                     ====================================
                        Begin CG opt. move =     12
                     ====================================

outcell: Unit cell vectors (Ang):
       14.912957   -1.230000    0.000000
        8.521690   12.300000    0.000000
        0.000000    0.000000   40.000000

outcell: Cell vector modules (Ang)   :   14.963596   14.963596   40.000000
outcell: Cell angles (23,13,12) (deg):     90.0000     90.0000     60.0000
outcell: Cell volume (Ang**3)        :   7756.4422
<dSpData1D:S at geom step 12
  <sparsity:sparsity for geom step 12
    nrows_g=1332 nrows=40 sparsity=.0216 nnzs=38410, refcount: 7>
  <dData1D:(new from dSpData1D) n=38410, refcount: 1>
refcount: 1>
new_DM -- step:    13
Re-using DM from previous geometries...
Number of DMs in history: 1
 DM extrapolation coefficients: 
1   1.00000
New DM after history re-use:
<dSpData2D:SpM extrapolated using coords
  <sparsity:sparsity for geom step 12
    nrows_g=1332 nrows=40 sparsity=.0216 nnzs=38410, refcount: 9>
  <dData2D:(temp array for extrapolation) n=38410 m=1, refcount: 1>
refcount: 1>
No. of atoms with KB's overlaping orbs in proc 0. Max # of overlaps:      93     231

InitMesh: MESH = 144 x 144 x 432 = 8957952
InitMesh: Mesh cutoff (required, used) =   300.000   322.366 Ry
New grid distribution [1]: sub = 2
New grid distribution [2]: sub = 2
New grid distribution [3]: sub = 2
Setting up quadratic distribution...

        iscf     Eharris(eV)        E_KS(eV)     FreeEng(eV)     dDmax    Ef(eV) dHmax(eV)
   scf:    1   -24214.084372   -24214.090181   -24214.090181  0.001044 -4.505750  0.010427
   scf:    2   -24214.089498   -24214.090004   -24214.090004  0.000935 -4.505800  0.025618
   scf:    3   -24214.090283   -24214.090231   -24214.090231  0.000674 -4.505761  0.001528
   scf:    4   -24214.090236   -24214.090234   -24214.090234  0.000035 -4.505754  0.000865

SCF Convergence by DM+H criterion
max |DM_out - DM_in|         :     0.0000350715
max |H_out - H_in|      (eV) :     0.0008649895
SCF cycle converged after 4 iterations

Using DM_out to compute the final energy and forces
No. of atoms with KB's overlaping orbs in proc 0. Max # of overlaps:      93     231
System symmetry is of type slab but no DFTD3.Periodic list was found. Attempting to guess symmetry for D3.
Could not guess the right amount of periodicity directions for D3.
Enabling periodicity on all directions.

siesta: E_KS(eV) =           -24214.0925

siesta: Atomic forces (eV/Ang):
----------------------------------------
   Tot    0.001183    0.000148   -0.003709
----------------------------------------
   Max    0.092295
   Res    0.029241    sqrt( Sum f_i^2 / 3N )
----------------------------------------
   Max    0.092296    constrained

Stress tensor Voigt[x,y,z,yz,xz,xy] (kbar):      -24.94      -24.96       -4.94       -0.00       -0.00       -0.00
(Free)E + p*V (eV/cell)   -24125.6014
Target enthalpy (eV/cell)   -24214.0925

cgvc: Finished line minimization    5.  Mean atomic displacement =    0.0051

                     ====================================
                        Begin CG opt. move =     13
                     ====================================

outcell: Unit cell vectors (Ang):
       14.912957   -1.230000    0.000000
        8.521690   12.300000    0.000000
        0.000000    0.000000   40.000000

outcell: Cell vector modules (Ang)   :   14.963596   14.963596   40.000000
outcell: Cell angles (23,13,12) (deg):     90.0000     90.0000     60.0000
outcell: Cell volume (Ang**3)        :   7756.4422
<dSpData1D:S at geom step 13
  <sparsity:sparsity for geom step 13
    nrows_g=1332 nrows=40 sparsity=.0216 nnzs=38375, refcount: 7>
  <dData1D:(new from dSpData1D) n=38375, refcount: 1>
refcount: 1>
new_DM -- step:    14
Re-using DM from previous geometries...
Number of DMs in history: 1
 DM extrapolation coefficients: 
1   1.00000
New DM after history re-use:
<dSpData2D:SpM extrapolated using coords
  <sparsity:sparsity for geom step 13
    nrows_g=1332 nrows=40 sparsity=.0216 nnzs=38375, refcount: 9>
  <dData2D:(temp array for extrapolation) n=38375 m=1, refcount: 1>
refcount: 1>
No. of atoms with KB's overlaping orbs in proc 0. Max # of overlaps:      93     231

InitMesh: MESH = 144 x 144 x 432 = 8957952
InitMesh: Mesh cutoff (required, used) =   300.000   322.366 Ry
New grid distribution [1]: sub = 2
New grid distribution [2]: sub = 2
New grid distribution [3]: sub = 2
Setting up quadratic distribution...

        iscf     Eharris(eV)        E_KS(eV)     FreeEng(eV)     dDmax    Ef(eV) dHmax(eV)
   scf:    1   -24214.125735   -24214.102558   -24214.102558  0.002295 -4.515230  0.054845
   scf:    2   -24214.087504   -24214.098786   -24214.098786  0.005289 -4.514728  0.117392
   scf:    3   -24214.105320   -24214.103814   -24214.103814  0.003619 -4.515087  0.004308
   scf:    4   -24214.103855   -24214.103837   -24214.103837  0.000063 -4.515112  0.002787
   scf:    5   -24214.103858   -24214.103849   -24214.103849  0.000083 -4.515186  0.000591

SCF Convergence by DM+H criterion
max |DM_out - DM_in|         :     0.0000834797
max |H_out - H_in|      (eV) :     0.0005905773
SCF cycle converged after 5 iterations

Using DM_out to compute the final energy and forces
No. of atoms with KB's overlaping orbs in proc 0. Max # of overlaps:      93     231
System symmetry is of type slab but no DFTD3.Periodic list was found. Attempting to guess symmetry for D3.
Could not guess the right amount of periodicity directions for D3.
Enabling periodicity on all directions.

siesta: E_KS(eV) =           -24214.0951

siesta: Atomic forces (eV/Ang):
----------------------------------------
   Tot   -0.000158   -0.000398   -0.003169
----------------------------------------
   Max    0.103130
   Res    0.033092    sqrt( Sum f_i^2 / 3N )
----------------------------------------
   Max    0.103129    constrained

Stress tensor Voigt[x,y,z,yz,xz,xy] (kbar):      -24.95      -24.96       -4.91       -0.00       -0.00       -0.00
(Free)E + p*V (eV/cell)   -24125.6239
Target enthalpy (eV/cell)   -24214.0951

                     ====================================
                        Begin CG opt. move =     14
                     ====================================

outcell: Unit cell vectors (Ang):
       14.912957   -1.230000    0.000000
        8.521690   12.300000    0.000000
        0.000000    0.000000   40.000000

outcell: Cell vector modules (Ang)   :   14.963596   14.963596   40.000000
outcell: Cell angles (23,13,12) (deg):     90.0000     90.0000     60.0000
outcell: Cell volume (Ang**3)        :   7756.4422
<dSpData1D:S at geom step 14
  <sparsity:sparsity for geom step 14
    nrows_g=1332 nrows=40 sparsity=.0216 nnzs=38405, refcount: 7>
  <dData1D:(new from dSpData1D) n=38405, refcount: 1>
refcount: 1>
new_DM -- step:    15
Re-using DM from previous geometries...
Number of DMs in history: 1
 DM extrapolation coefficients: 
1   1.00000
New DM after history re-use:
<dSpData2D:SpM extrapolated using coords
  <sparsity:sparsity for geom step 14
    nrows_g=1332 nrows=40 sparsity=.0216 nnzs=38405, refcount: 9>
  <dData2D:(temp array for extrapolation) n=38405 m=1, refcount: 1>
refcount: 1>
No. of atoms with KB's overlaping orbs in proc 0. Max # of overlaps:      93     231

InitMesh: MESH = 144 x 144 x 432 = 8957952
InitMesh: Mesh cutoff (required, used) =   300.000   322.366 Ry
New grid distribution [1]: sub = 2
New grid distribution [2]: sub = 2
New grid distribution [3]: sub = 2
Setting up quadratic distribution...

        iscf     Eharris(eV)        E_KS(eV)     FreeEng(eV)     dDmax    Ef(eV) dHmax(eV)
   scf:    1   -24214.084978   -24214.092992   -24214.092992  0.001000 -4.512274  0.017827
   scf:    2   -24214.091376   -24214.092584   -24214.092584  0.001699 -4.512427  0.038519
   scf:    3   -24214.093282   -24214.093123   -24214.093123  0.001168 -4.512316  0.001500
   scf:    4   -24214.093128   -24214.093126   -24214.093126  0.000022 -4.512306  0.000961

SCF Convergence by DM+H criterion
max |DM_out - DM_in|         :     0.0000224825
max |H_out - H_in|      (eV) :     0.0009609154
SCF cycle converged after 4 iterations

Using DM_out to compute the final energy and forces
No. of atoms with KB's overlaping orbs in proc 0. Max # of overlaps:      93     231
System symmetry is of type slab but no DFTD3.Periodic list was found. Attempting to guess symmetry for D3.
Could not guess the right amount of periodicity directions for D3.
Enabling periodicity on all directions.

siesta: E_KS(eV) =           -24214.0961

siesta: Atomic forces (eV/Ang):
----------------------------------------
   Tot    0.000375   -0.000002   -0.003299
----------------------------------------
   Max    0.075023
   Res    0.019708    sqrt( Sum f_i^2 / 3N )
----------------------------------------
   Max    0.075023    constrained

Stress tensor Voigt[x,y,z,yz,xz,xy] (kbar):      -24.95      -24.96       -4.92       -0.00       -0.00       -0.00
(Free)E + p*V (eV/cell)   -24125.6187
Target enthalpy (eV/cell)   -24214.0961

cgvc: Finished line minimization    6.  Mean atomic displacement =    0.0034

                     ====================================
                        Begin CG opt. move =     15
                     ====================================

outcell: Unit cell vectors (Ang):
       14.912957   -1.230000    0.000000
        8.521690   12.300000    0.000000
        0.000000    0.000000   40.000000

outcell: Cell vector modules (Ang)   :   14.963596   14.963596   40.000000
outcell: Cell angles (23,13,12) (deg):     90.0000     90.0000     60.0000
outcell: Cell volume (Ang**3)        :   7756.4422
<dSpData1D:S at geom step 15
  <sparsity:sparsity for geom step 15
    nrows_g=1332 nrows=40 sparsity=.0216 nnzs=38375, refcount: 7>
  <dData1D:(new from dSpData1D) n=38375, refcount: 1>
refcount: 1>
new_DM -- step:    16
Re-using DM from previous geometries...
Number of DMs in history: 1
 DM extrapolation coefficients: 
1   1.00000
New DM after history re-use:
<dSpData2D:SpM extrapolated using coords
  <sparsity:sparsity for geom step 15
    nrows_g=1332 nrows=40 sparsity=.0216 nnzs=38375, refcount: 9>
  <dData2D:(temp array for extrapolation) n=38375 m=1, refcount: 1>
refcount: 1>
No. of atoms with KB's overlaping orbs in proc 0. Max # of overlaps:      93     231

InitMesh: MESH = 144 x 144 x 432 = 8957952
InitMesh: Mesh cutoff (required, used) =   300.000   322.366 Ry
New grid distribution [1]: sub = 2
New grid distribution [2]: sub = 2
New grid distribution [3]: sub = 2
Setting up quadratic distribution...

        iscf     Eharris(eV)        E_KS(eV)     FreeEng(eV)     dDmax    Ef(eV) dHmax(eV)
   scf:    1   -24214.124236   -24214.105298   -24214.105298  0.001397 -4.516008  0.031966
   scf:    2   -24214.096198   -24214.102947   -24214.102947  0.002727 -4.515659  0.073261
   scf:    3   -24214.106779   -24214.105954   -24214.105954  0.001915 -4.515905  0.003287
   scf:    4   -24214.105972   -24214.105965   -24214.105965  0.000073 -4.515920  0.001560
   scf:    5   -24214.105972   -24214.105969   -24214.105969  0.000040 -4.515969  0.000574

SCF Convergence by DM+H criterion
max |DM_out - DM_in|         :     0.0000398877
max |H_out - H_in|      (eV) :     0.0005742773
SCF cycle converged after 5 iterations

Using DM_out to compute the final energy and forces
No. of atoms with KB's overlaping orbs in proc 0. Max # of overlaps:      93     231
System symmetry is of type slab but no DFTD3.Periodic list was found. Attempting to guess symmetry for D3.
Could not guess the right amount of periodicity directions for D3.
Enabling periodicity on all directions.

siesta: E_KS(eV) =           -24214.0987

siesta: Atomic forces (eV/Ang):
----------------------------------------
   Tot   -0.000195    0.000539   -0.002441
----------------------------------------
   Max    0.078448
   Res    0.023698    sqrt( Sum f_i^2 / 3N )
----------------------------------------
   Max    0.078446    constrained

Stress tensor Voigt[x,y,z,yz,xz,xy] (kbar):      -24.98      -24.94       -4.90       -0.00       -0.00        0.00
(Free)E + p*V (eV/cell)   -24125.6377
Target enthalpy (eV/cell)   -24214.0987

                     ====================================
                        Begin CG opt. move =     16
                     ====================================

outcell: Unit cell vectors (Ang):
       14.912957   -1.230000    0.000000
        8.521690   12.300000    0.000000
        0.000000    0.000000   40.000000

outcell: Cell vector modules (Ang)   :   14.963596   14.963596   40.000000
outcell: Cell angles (23,13,12) (deg):     90.0000     90.0000     60.0000
outcell: Cell volume (Ang**3)        :   7756.4422
<dSpData1D:S at geom step 16
  <sparsity:sparsity for geom step 16
    nrows_g=1332 nrows=40 sparsity=.0216 nnzs=38375, refcount: 7>
  <dData1D:(new from dSpData1D) n=38375, refcount: 1>
refcount: 1>
new_DM -- step:    17
Re-using DM from previous geometries...
Number of DMs in history: 1
 DM extrapolation coefficients: 
1   1.00000
New DM after history re-use:
<dSpData2D:SpM extrapolated using coords
  <sparsity:sparsity for geom step 16
    nrows_g=1332 nrows=40 sparsity=.0216 nnzs=38375, refcount: 9>
  <dData2D:(temp array for extrapolation) n=38375 m=1, refcount: 1>
refcount: 1>
No. of atoms with KB's overlaping orbs in proc 0. Max # of overlaps:      93     231

InitMesh: MESH = 144 x 144 x 432 = 8957952
InitMesh: Mesh cutoff (required, used) =   300.000   322.366 Ry
New grid distribution [1]: sub = 2
New grid distribution [2]: sub = 2
New grid distribution [3]: sub = 2
Setting up quadratic distribution...

        iscf     Eharris(eV)        E_KS(eV)     FreeEng(eV)     dDmax    Ef(eV) dHmax(eV)
   scf:    1   -24214.097155   -24214.098301   -24214.098301  0.000083 -4.515830  0.002046
   scf:    2   -24214.098269   -24214.098293   -24214.098293  0.000176 -4.515814  0.005151
   scf:    3   -24214.098306   -24214.098303   -24214.098303  0.000127 -4.515824  0.000245
   scf:    4   -24214.098304   -24214.098303   -24214.098303  0.000005 -4.515819  0.000133

SCF Convergence by DM+H criterion
max |DM_out - DM_in|         :     0.0000049591
max |H_out - H_in|      (eV) :     0.0001328256
SCF cycle converged after 4 iterations

Using DM_out to compute the final energy and forces
No. of atoms with KB's overlaping orbs in proc 0. Max # of overlaps:      93     231
System symmetry is of type slab but no DFTD3.Periodic list was found. Attempting to guess symmetry for D3.
Could not guess the right amount of periodicity directions for D3.
Enabling periodicity on all directions.

siesta: E_KS(eV) =           -24214.0987

siesta: Atomic forces (eV/Ang):
----------------------------------------
   Tot   -0.000079    0.000521   -0.002364
----------------------------------------
   Max    0.072435
   Res    0.022328    sqrt( Sum f_i^2 / 3N )
----------------------------------------
   Max    0.072434    constrained

Stress tensor Voigt[x,y,z,yz,xz,xy] (kbar):      -24.97      -24.94       -4.90       -0.00       -0.00        0.00
(Free)E + p*V (eV/cell)   -24125.6359
Target enthalpy (eV/cell)   -24214.0987

cgvc: Finished line minimization    7.  Mean atomic displacement =    0.0032

                     ====================================
                        Begin CG opt. move =     17
                     ====================================

outcell: Unit cell vectors (Ang):
       14.912957   -1.230000    0.000000
        8.521690   12.300000    0.000000
        0.000000    0.000000   40.000000

outcell: Cell vector modules (Ang)   :   14.963596   14.963596   40.000000
outcell: Cell angles (23,13,12) (deg):     90.0000     90.0000     60.0000
outcell: Cell volume (Ang**3)        :   7756.4422
<dSpData1D:S at geom step 17
  <sparsity:sparsity for geom step 17
    nrows_g=1332 nrows=40 sparsity=.0216 nnzs=38367, refcount: 7>
  <dData1D:(new from dSpData1D) n=38367, refcount: 1>
refcount: 1>
new_DM -- step:    18
Re-using DM from previous geometries...
Number of DMs in history: 1
 DM extrapolation coefficients: 
1   1.00000
New DM after history re-use:
<dSpData2D:SpM extrapolated using coords
  <sparsity:sparsity for geom step 17
    nrows_g=1332 nrows=40 sparsity=.0216 nnzs=38367, refcount: 9>
  <dData2D:(temp array for extrapolation) n=38367 m=1, refcount: 1>
refcount: 1>
[...]
       14.912957   -1.230000    0.000000
        8.521690   12.300000    0.000000
        0.000000    0.000000   40.000000

outcell: Cell vector modules (Ang)   :   14.963596   14.963596   40.000000
outcell: Cell angles (23,13,12) (deg):     90.0000     90.0000     60.0000
outcell: Cell volume (Ang**3)        :   7756.4422
<dSpData1D:S at geom step 66
  <sparsity:sparsity for geom step 66
    nrows_g=1332 nrows=40 sparsity=.0213 nnzs=37878, refcount: 7>
  <dData1D:(new from dSpData1D) n=37878, refcount: 1>
refcount: 1>
new_DM -- step:    67
Re-using DM from previous geometries...
Number of DMs in history: 1
 DM extrapolation coefficients: 
1   1.00000
New DM after history re-use:
<dSpData2D:SpM extrapolated using coords
  <sparsity:sparsity for geom step 66
    nrows_g=1332 nrows=40 sparsity=.0213 nnzs=37878, refcount: 9>
  <dData2D:(temp array for extrapolation) n=37878 m=1, refcount: 1>
refcount: 1>
No. of atoms with KB's overlaping orbs in proc 0. Max # of overlaps:      92     225

InitMesh: MESH = 144 x 144 x 432 = 8957952
InitMesh: Mesh cutoff (required, used) =   300.000   322.366 Ry
New grid distribution [1]: sub = 2
New grid distribution [2]: sub = 2
New grid distribution [3]: sub = 2
Setting up quadratic distribution...

        iscf     Eharris(eV)        E_KS(eV)     FreeEng(eV)     dDmax    Ef(eV) dHmax(eV)
   scf:    1   -24214.154721   -24214.155775   -24214.155775  0.000661 -3.763887  0.002600
   scf:    2   -24214.155722   -24214.155761   -24214.155761  0.000182 -3.763896  0.008657
   scf:    3   -24214.155782   -24214.155779   -24214.155779  0.000139 -3.763888  0.000576
   scf:    4   -24214.155779   -24214.155779   -24214.155779  0.000011 -3.763886  0.000240

SCF Convergence by DM+H criterion
max |DM_out - DM_in|         :     0.0000111919
max |H_out - H_in|      (eV) :     0.0002402066
SCF cycle converged after 4 iterations

Using DM_out to compute the final energy and forces
No. of atoms with KB's overlaping orbs in proc 0. Max # of overlaps:      92     225
System symmetry is of type slab but no DFTD3.Periodic list was found. Attempting to guess symmetry for D3.
Could not guess the right amount of periodicity directions for D3.
Enabling periodicity on all directions.

siesta: E_KS(eV) =           -24214.1564

siesta: Atomic forces (eV/Ang):
----------------------------------------
   Tot    0.000011   -0.000026   -0.004215
----------------------------------------
   Max    0.012012
   Res    0.004213    sqrt( Sum f_i^2 / 3N )
----------------------------------------
   Max    0.012012    constrained

Stress tensor Voigt[x,y,z,yz,xz,xy] (kbar):      -25.09      -25.10       -4.15       -0.00       -0.00        0.00
(Free)E + p*V (eV/cell)   -24126.4731
Target enthalpy (eV/cell)   -24214.1564

cgvc: Finished line minimization   26.  Mean atomic displacement =    0.0017

                     ====================================
                        Begin CG opt. move =     67
                     ====================================

outcell: Unit cell vectors (Ang):
       14.912957   -1.230000    0.000000
        8.521690   12.300000    0.000000
        0.000000    0.000000   40.000000

outcell: Cell vector modules (Ang)   :   14.963596   14.963596   40.000000
outcell: Cell angles (23,13,12) (deg):     90.0000     90.0000     60.0000
outcell: Cell volume (Ang**3)        :   7756.4422
<dSpData1D:S at geom step 67
  <sparsity:sparsity for geom step 67
    nrows_g=1332 nrows=40 sparsity=.0213 nnzs=37878, refcount: 7>
  <dData1D:(new from dSpData1D) n=37878, refcount: 1>
refcount: 1>
new_DM -- step:    68
Re-using DM from previous geometries...
Number of DMs in history: 1
 DM extrapolation coefficients: 
1   1.00000
New DM after history re-use:
<dSpData2D:SpM extrapolated using coords
  <sparsity:sparsity for geom step 67
    nrows_g=1332 nrows=40 sparsity=.0213 nnzs=37878, refcount: 9>
  <dData2D:(temp array for extrapolation) n=37878 m=1, refcount: 1>
refcount: 1>
No. of atoms with KB's overlaping orbs in proc 0. Max # of overlaps:      92     225

InitMesh: MESH = 144 x 144 x 432 = 8957952
InitMesh: Mesh cutoff (required, used) =   300.000   322.366 Ry
New grid distribution [1]: sub = 2
New grid distribution [2]: sub = 2
New grid distribution [3]: sub = 2
Setting up quadratic distribution...

        iscf     Eharris(eV)        E_KS(eV)     FreeEng(eV)     dDmax    Ef(eV) dHmax(eV)
   scf:    1   -24214.162980   -24214.158726   -24214.158726  0.000842 -3.768658  0.013032
   scf:    2   -24214.157084   -24214.158309   -24214.158309  0.001240 -3.768348  0.035535
   scf:    3   -24214.158975   -24214.158854   -24214.158854  0.000897 -3.768578  0.001784
   scf:    4   -24214.158862   -24214.158859   -24214.158859  0.000067 -3.768581  0.000727

SCF Convergence by DM+H criterion
max |DM_out - DM_in|         :     0.0000668584
max |H_out - H_in|      (eV) :     0.0007269866
SCF cycle converged after 4 iterations

Using DM_out to compute the final energy and forces
No. of atoms with KB's overlaping orbs in proc 0. Max # of overlaps:      92     225
System symmetry is of type slab but no DFTD3.Periodic list was found. Attempting to guess symmetry for D3.
Periodicity direction guess succeeded.

siesta: E_KS(eV) =           -24214.1561

siesta: Atomic forces (eV/Ang):
----------------------------------------
   Tot    0.000137   -0.000525   -0.003707
----------------------------------------
   Max    0.049996
   Res    0.014358    sqrt( Sum f_i^2 / 3N )
----------------------------------------
   Max    0.049997    constrained

Stress tensor Voigt[x,y,z,yz,xz,xy] (kbar):      -25.11      -25.08       -4.14        0.00       -0.00        0.01
(Free)E + p*V (eV/cell)   -24126.4766
Target enthalpy (eV/cell)   -24214.1561

                     ====================================
                        Begin CG opt. move =     68
                     ====================================

outcell: Unit cell vectors (Ang):
       14.912957   -1.230000    0.000000
        8.521690   12.300000    0.000000
        0.000000    0.000000   40.000000

outcell: Cell vector modules (Ang)   :   14.963596   14.963596   40.000000
outcell: Cell angles (23,13,12) (deg):     90.0000     90.0000     60.0000
outcell: Cell volume (Ang**3)        :   7756.4422
<dSpData1D:S at geom step 68
  <sparsity:sparsity for geom step 68
    nrows_g=1332 nrows=40 sparsity=.0213 nnzs=37878, refcount: 7>
  <dData1D:(new from dSpData1D) n=37878, refcount: 1>
refcount: 1>
new_DM -- step:    69
Re-using DM from previous geometries...
Number of DMs in history: 1
 DM extrapolation coefficients: 
1   1.00000
New DM after history re-use:
<dSpData2D:SpM extrapolated using coords
  <sparsity:sparsity for geom step 68
    nrows_g=1332 nrows=40 sparsity=.0213 nnzs=37878, refcount: 9>
  <dData2D:(temp array for extrapolation) n=37878 m=1, refcount: 1>
refcount: 1>
No. of atoms with KB's overlaping orbs in proc 0. Max # of overlaps:      92     225

InitMesh: MESH = 144 x 144 x 432 = 8957952
InitMesh: Mesh cutoff (required, used) =   300.000   322.366 Ry
New grid distribution [1]: sub = 2
New grid distribution [2]: sub = 2
New grid distribution [3]: sub = 2
Setting up quadratic distribution...

        iscf     Eharris(eV)        E_KS(eV)     FreeEng(eV)     dDmax    Ef(eV) dHmax(eV)
   scf:    1   -24214.151153   -24214.154409   -24214.154409  0.002310 -3.765209  0.009413
   scf:    2   -24214.153631   -24214.154212   -24214.154212  0.000871 -3.765441  0.026624
   scf:    3   -24214.154523   -24214.154471   -24214.154471  0.000637 -3.765263  0.001383
   scf:    4   -24214.154476   -24214.154474   -24214.154474  0.000056 -3.765261  0.000569

SCF Convergence by DM+H criterion
max |DM_out - DM_in|         :     0.0000558714
max |H_out - H_in|      (eV) :     0.0005694630
SCF cycle converged after 4 iterations

Using DM_out to compute the final energy and forces
No. of atoms with KB's overlaping orbs in proc 0. Max # of overlaps:      92     225
System symmetry is of type slab but no DFTD3.Periodic list was found. Attempting to guess symmetry for D3.
Could not guess the right amount of periodicity directions for D3.
Enabling periodicity on all directions.

siesta: E_KS(eV) =           -24214.1565

siesta: Atomic forces (eV/Ang):
----------------------------------------
   Tot   -0.000036   -0.000211   -0.004093
----------------------------------------
   Max    0.008039
   Res    0.002862    sqrt( Sum f_i^2 / 3N )
----------------------------------------
   Max    0.008039    constrained

Stress tensor Voigt[x,y,z,yz,xz,xy] (kbar):      -25.09      -25.09       -4.15       -0.00       -0.00        0.00
(Free)E + p*V (eV/cell)   -24126.4741
Target enthalpy (eV/cell)   -24214.1565

outcoor: Relaxed atomic coordinates (Ang):                  
    1.42036048    0.00062056   18.18042727   1       1  C
    5.68109442    0.00093369   18.23556250   1       2  C
    9.94173762   -0.00092300   18.23008344   1       3  C
   14.20212017   -0.00034641   18.18243434   1       4  C
    3.55055673    1.23113153   18.20924266   1       5  C
    7.81130693    1.22999903   18.24826635   1       6  C
   12.07156430    1.22919431   18.21121973   1       7  C
   16.33236878    1.23058100   18.19844651   1       8  C
    5.68080467    2.46060780   18.24186208   1       9  C
    9.94145475    2.45942516   18.24127911   1      10  C
   14.20159012    2.45986203   18.21136851   1      11  C
    3.55017941    3.69057069   18.22939042   1      12  C
    7.81148019    3.68990714   18.25125897   1      13  C
   12.07166113    3.68971689   18.23463279   1      14  C
   16.33226775    3.69026384   18.23069322   1      15  C
    5.68119369    4.92001351   18.24702241   1      16  C
    9.94203913    4.91988721   18.24534958   1      17  C
   14.20192341    4.92004491   18.24255013   1      18  C
   18.46343470    4.91987733   18.24602123   1      19  C
    7.81219637    6.14976928   18.23854276   1      20  C
   12.07243186    6.15016179   18.24222827   1      21  C
   16.33285335    6.14987519   18.25253855   1      22  C
    5.68186024    7.37951147   18.23500520   1      23  C
    9.94292624    7.38019147   18.22413257   1      24  C
   14.20279929    7.38028140   18.25076980   1      25  C
   18.46412840    7.37939982   18.24354527   1      26  C
    7.81264472    8.60961861   18.20728712   1      27  C
   12.07301777    8.61070907   18.22571294   1      28  C
   16.33337068    8.60975606   18.25274509   1      29  C
   20.59474051    8.60899426   18.21103098   1      30  C
    9.94289078    9.84033173   18.19381755   1      31  C
   14.20309769    9.84066660   18.24119247   1      32  C
   18.46406355    9.83903339   18.23149889   1      33  C
    7.81204350   11.06950450   18.18121538   1      34  C
   12.07285522   11.07114004   18.20852740   1      35  C
   16.33339928   11.06994311   18.24582697   1      36  C
   20.59398295   11.06888561   18.19941537   1      37  C
    2.84066424    0.00105683   18.19549253   1      38  C
    7.10111726    0.00010471   18.24548530   1      39  C
   11.36171529   -0.00122784   18.21186083   1      40  C
   15.62252067    0.00037347   18.18199931   1      41  C
    4.97057994    1.23095692   18.22907248   1      42  C
    9.23139950    1.22914243   18.24173755   1      43  C
   13.49175127    1.22955015   18.19825712   1      44  C
    2.83989250    2.46099213   18.21026367   1      45  C
    7.10103864    2.46015871   18.25001498   1      46  C
   11.36163919    2.45927501   18.22899845   1      47  C
   15.62201629    2.46047846   18.21167584   1      48  C
    4.97054948    3.69062405   18.24121242   1      49  C
    9.23171705    3.68965132   18.24861980   1      50  C
   13.49184968    3.68985543   18.22946293   1      51  C
   17.75279247    3.69045439   18.23639297   1      52  C
    7.10170364    4.92004804   18.24852039   1      53  C
   11.36233878    4.91982644   18.24308414   1      54  C
   15.62232868    4.92019373   18.24318022   1      55  C
    4.97114378    6.15006150   18.24473820   1      56  C
    9.23265163    6.14999940   18.23732041   1      57  C
   13.49256253    6.15011387   18.24744087   1      58  C
   17.75336514    6.14993032   18.24955563   1      59  C
    7.10241224    7.37975756   18.22656073   1      60  C
   11.36313807    7.38025732   18.23055812   1      61  C
   15.62299403    7.37994446   18.25528625   1      62  C
   19.88457288    7.37943365   18.23024751   1      63  C
    9.23312332    8.61004972   18.20608471   1      64  C
   13.49308458    8.61042191   18.24026373   1      65  C
   17.75368322    8.60934569   18.24401448   1      66  C
    7.10215408    9.83936291   18.19613492   1      67  C
   11.36307519    9.84068027   18.20696043   1      68  C
   15.62318351    9.84002407   18.24872706   1      69  C
   19.88417123    9.83883134   18.21207335   1      70  C
    9.23247347   11.07012798   18.17956788   1      71  C
   13.49285579   11.07085103   18.22859428   1      72  C
   17.75343178   11.06906864   18.23673490   1      73  C
   22.01419482   11.06924939   18.18280711   1      74  C
    3.70453592    0.63048094   21.77791182   1      75  C
    7.90774306   -0.06644171   21.75423071   1      76  C
   12.11088071   -0.76350437   21.79159720   1      77  C
    1.80508800    2.19348504   21.79014422   1      78  C
    6.00771012    1.49517647   21.75535003   1      79  C
   10.21112362    0.79874051   21.76520750   1      80  C
   14.41459130    0.10019686   21.80272147   1      81  C
    4.10783310    3.05757224   21.76400352   1      82  C
    8.31090086    2.36042926   21.74752153   1      83  C
   12.51475238    1.66307453   21.78103816   1      84  C
    6.41058082    3.92241537   21.74677496   1      85  C
   10.61433246    3.22522802   21.75435675   1      86  C
   14.81816125    2.52679544   21.78088343   1      87  C
    4.51034673    5.48498600   21.75301745   1      88  C
    8.71333134    4.78726743   21.74543761   1      89  C
   12.91772972    4.08931333   21.76000173   1      90  C
   17.12098731    3.39055645   21.76659285   1      91  C
    6.81283623    6.34967681   21.75280601   1      92  C
   11.01666080    5.65148039   21.75028721   1      93  C
   15.22081571    4.95326223   21.75636342   1      94  C
    9.11568710    7.21373272   21.76054368   1      95  C
   13.32002070    6.51552776   21.75022375   1      96  C
   17.52330289    5.81774731   21.75191183   1      97  C
    7.21542891    8.77659173   21.77617242   1      98  C
   11.41905600    8.07761746   21.76146981   1      99  C
   15.62311169    7.37997232   21.74745532   1     100  C
   19.82571226    6.68241503   21.75932683   1     101  C
    9.51885878    9.64011134   21.78582850   1     102  C
   13.72266624    8.94182058   21.75501818   1     103  C
   17.92582151    8.24491813   21.75663890   1     104  C
   11.82245004   10.50378884   21.77659927   1     105  C
   16.02600579    9.80679304   21.75307402   1     106  C
   20.22873792    9.10954148   21.78069600   1     107  C
    9.92282497   12.06662333   21.80134920   1     108  C
   14.12597617   11.36825756   21.76027621   1     109  C
   18.32914665   10.67193167   21.76742668   1     110  C
   22.53204150    9.97328590   21.80142249   1     111  C
    0.90274269    1.09672578   21.80251761   1     112  C
    5.10544950    0.39802607   21.76427193   1     113  C
    9.30870576   -0.29831465   21.76137513   1     114  C
   13.51195753   -0.99656494   21.80269101   1     115  C
    3.20595054    1.96051217   21.77869295   1     116  C
    7.40869652    1.26317755   21.75110728   1     117  C
   11.61211770    0.56628688   21.78113094   1     118  C
    5.50879534    2.82513688   21.75418223   1     119  C
    9.71197487    2.12817818   21.75440553   1     120  C
   13.91589646    1.43002656   21.79104448   1     121  C
    3.60903705    4.38767245   21.76076584   1     122  C
    7.81163401    3.68997390   21.74431157   1     123  C
   12.01558313    2.99245607   21.76546068   1     124  C
   16.21935188    2.29353322   21.78099077   1     125  C
    5.91139874    5.25238350   21.74907914   1     126  C
   10.11466075    4.55444541   21.74779210   1     127  C
   14.31893419    3.85630955   21.76551159   1     128  C
    8.21388779    6.11676735   21.75199626   1     129  C
   12.41802708    5.41844462   21.75186290   1     130  C
   16.62197113    4.72042770   21.75730356   1     131  C
    6.31376568    7.67954772   21.76230491   1     132  C
   10.51694910    6.98066763   21.75642254   1     133  C
   14.72133309    6.28276813   21.74901199   1     134  C
   18.92433345    5.58510586   21.75323357   1     135  C
    8.61649755    8.54339835   21.77479236   1     136  C
   12.82034020    7.84481998   21.75410397   1     137  C
   17.02423331    7.14759524   21.74961733   1     138  C
   10.91989536    9.40701881   21.77557405   1     139  C
   15.12385334    8.70962770   21.74996132   1     140  C
   19.32682333    8.01252905   21.76520258   1     141  C
    9.02009131   10.96997829   21.80031080   1     142  C
   13.22345468   10.27126904   21.76343554   1     143  C
   17.42694270    9.57484840   21.75797405   1     144  C
   21.62970816    8.87658504   21.78886117   1     145  C
   11.32378397   11.83357890   21.78782368   1     146  C
   15.52697040   11.13642509   21.75483840   1     147  C
   19.73004410   10.43959910   21.78202839   1     148  C

siesta: Program's energy decomposition (eV):
siesta: Ebs     =     -7857.801574
siesta: Eions   =     41759.932744
siesta: Ena     =      9221.311170
siesta: Ekin    =     16817.953063
siesta: Enl     =      -853.280492
siesta: Eso     =         0.000000
siesta: Edftu   =         0.000000
siesta: DEna    =       969.512988
siesta: DUscf   =        49.323635
siesta: DUext   =         0.000000
siesta: Ex      =     -7894.061231
siesta: Ec      =      -750.579009
siesta: Exc     =     -8644.640240
siesta: EbV     =         0.000000
siesta: eta*DQ  =         0.000000
siesta: Emadel  =         0.000000
siesta: Emeta   =         0.000000
siesta: Emolmec =         0.000000
siesta: Ekinion =         0.000000
siesta: Eharris =    -24214.154476
siesta: Etot    =    -24214.156484
siesta: FreeEng =    -24214.156484

siesta: Final energy (eV):
siesta:  Band Struct. =   -7857.801574
siesta:       Kinetic =   16817.953063
siesta:       Hartree =  391401.245351
siesta:         Edftu =       0.000000
siesta:       Eso     =       0.000000
siesta:    Ext. field =       0.000000
siesta:         Exch. =   -7894.061231
siesta:         Corr. =    -750.579009
siesta:     Bulk bias =       0.000000
siesta:   Exch.-corr. =   -8644.640240
siesta:  Ion-electron = -798027.228900
siesta:       Ion-ion =  374252.918106
siesta:       Ekinion =       0.000000
siesta: D3 dispersion =     -14.403864
siesta:         Total =  -24214.156484
siesta:         Fermi =      -3.765261

siesta: Stress tensor (static) (eV/Ang**3):
siesta:    -0.015662    0.000002   -0.000000
siesta:     0.000002   -0.015662   -0.000000
siesta:    -0.000000   -0.000000   -0.002589

siesta: Cell volume =       7756.442214 Ang**3

siesta: Pressure (static):
siesta:                Solid            Molecule  Units
siesta:           0.00012312          0.00012291  Ry/Bohr**3
siesta:           0.01130446          0.01128493  eV/Ang**3
siesta:          18.11173533         18.08045045  kBar
(Free)E+ p_basis*V_orbitals  =      -24124.964881
(Free)Eharris+ p_basis*V_orbitals  =      -24124.962872

siesta: Electric dipole (a.u.)  =    0.000000   -0.000000   -0.000091
siesta: Electric dipole (Debye) =    0.000000   -0.000000   -0.000231

cite: Please see "Graphene.bib" for an exhaustive BiBTeX file.
cite: Please clearly indicate Siesta version in published work: 5.0.0-alpha-112-g6e4f53aee-dirty
cite: This calculation has made use of the following articles
cite: which are encouraged to be cited in a published work.
        Primary SIESTA paper
          DOI: www.doi.org/10.1088/0953-8984/14/11/302
 
 
>> End of run:   1-DEC-2024  14:38:53
Job completed
