Siesta Version  : 5.0.0-alpha-112-g6e4f53aee-dirty
Architecture    : ----
Compiler version: Intel-2021.8.0.20221119
Compiler flags  : -O2 -ip -xHost -fp-model=strict -prec-div -prec-sqrt
PP flags        : ----
Libraries       : ----
Parallelisations: MPI
GEMM3M support
NetCDF support
NetCDF-4 support

Runtime information:
* Directory : /n/holylabs/LABS/kaxiras_lab/axzhu/projects/AM207-final-project/N_9/PSO_z
* Running on 64 nodes in parallel.
>> Start of run:   1-DEC-2024  14:05:02

                           *********************** 
                           *  WELCOME TO SIESTA  * 
                           *********************** 

reinit: Reading from standard input
reinit: Dumping input in INPUT_TMP.22519
************************** Dump of input data file ****************************
#################################
#				#
#	Basic Information	#
#	      			#
#################################
SystemName      Graphene
SystemLabel     Graphene
#########################################
#					#
#	Structural Information		#
#					#
#########################################
%include structure.fdf
#################################
#                               #
#       DFT Parameters          #
#                               #
#################################
SolutionMethod diagon           # Method of solving system. Can change to OrderN, transiesta, etc.
#Diag.Algorithm MRRR
#NumberOfEigenStates -20 # this will include first 10 conduction bands
XC.Functional   GGA
XC.Authors      PBE
DFTD3 true
Spin non-polarized
# This is causing memory issues, keep it low for now.
Mesh.Cutoff 300 Ry              # Cut off plane waves with kinetic energy higher than this.
MaxSCFIterations 300            # Max number of iterations in the SCF loop.
DM.UseSaveDM true
MinSCFIterations       3
SCF.DM.Tolerance       0.0001
SCF.Mixer.Weight       0.10
SCF.Mixer.History      12
SCF.Mix.First          true
#################################
#                               #
#             Basis             #
#                               #
#################################
#PAO.BasisSize   DZP
PAO.Basis < basis.fdf
#########################################
#					#
#	k-points, Bands, DOS		#
#		  	 		#
#########################################
%block kgrid_Monkhorst_Pack
   1  0  0  0.0
   0  1  0  0.0
   0  0  1  0.0
%endblock kgrid_Monkhorst_Pack
#BandLinesScale ReciprocalLatticeVectors
#%block BandLines
#1   0.6666666667  0.3333333333  0.0000000000  K
#10  0.0000000000  0.0000000000  0.0000000000  Gamma
#10  0.5000000000  0.0000000000  0.0000000000  M
#10  0.6666666667  0.3333333333  0.0000000000  K
#%endblock BandLines
# Local density of states (LDOS)
# %block LocalDensityOfStates
# EF 8.40 8.50 eV
# %endblock LocalDensityOfStates
#########################################
#                                       #
#             Wavefunctions             #
#                                       #
#########################################
#WaveFuncKPointsScale ReciprocalLatticeVectors
#%block WaveFuncKPoints
#0.666 0.333 0.000 from 4375 to 4378 # K wavefuncs 4375 to 4378
#0.000 0.000 0.000 from 4375 to 4378 # Gamma wavefuncs 4375 to 4378
#0.500 0.000 0.000 from 4375 to 4378 # M wavefuncs 4375 to 4378
#%endblock WaveFuncKPoints
#WriteDenchar T
#########################################
#                                       #
#       Geometry Optimisation           #
#                                       #
#########################################
MD.UseSaveXV true
MD.TypeOfRun           CG                  # Conjugate Gradient
MD.NumCGsteps          200                 # Max number of steps
MD.MaxForceTol         0.01    eV/Ang      # 10 meV/Ang
MD.VariableCell        false               # Don't relax cell
MD.MaxCGDispl          0.5 Bohr            # Maximum displacement of any atom
# Fix COM in Z direction only
%block Geometry.Constraints
 center all 0.0 0.0 1.0
%endblock Geometry.Constraints
************************** End of input data file *****************************

reinit: -----------------------------------------------------------------------
reinit: System Name: Graphene
reinit: -----------------------------------------------------------------------
reinit: System Label: Graphene
reinit: -----------------------------------------------------------------------

initatom: Reading input for the pseudopotentials and atomic orbitals ----------
Species number:   1 Atomic number:    6 Label: C
 

---- Processing specs for species: C
Ground state valence configuration:   2s02  2p02
Reading pseudopotential information in PSML from:
  C.psml
PSML file version: 1.1
Using libxc ids:  101 130
GGA--PBE XC_GGA_X_PBE--XC_GGA_C_PBE pb
 Using ATOM defaults for log grid...
PSML uuid: 297821e0-be41-11e7-6802-e1ff7dfff095

---- Pseudopotential check for C 

Pseudized shells:
2s( 2.00) rc: 1.20
2p( 2.00) rc: 1.26
Valence configuration for ps generation: 2s:2p: Total charge:   4.000000
For C, standard SIESTA heuristics set lmxkb to 3
 (one more than the basis l, including polarization orbitals).
Use PS.lmax or PS.KBprojectors blocks to override.
C pseudopotential only contains V_ls up to l=1 -- lmxkb reset.

<basis_specs>
===============================================================================
C                    Z=   6    Mass=  12.011        Charge= 0.99941    
Lmxo=2 Lmxkb= 1    BasisType=split      Semic=F
L=0  Nsemic=0  Cnfigmx=2
          i=1  nzeta=1  polorb=0  (2s)
            splnorm:   0.15000    
               vcte:    132.57    
               rinn:    4.5256    
               qcoe:    0.0000    
               qyuk:    0.0000    
               qwid:   0.10000E-01
                rcs:    6.0009    
            lambdas:    1.0000    
L=1  Nsemic=0  Cnfigmx=2
          i=1  nzeta=1  polorb=0  (2p)
            splnorm:   0.15000    
               vcte:    6.0639    
               rinn:    6.0646    
               qcoe:    0.0000    
               qyuk:    0.0000    
               qwid:   0.10000E-01
                rcs:    6.7108    
            lambdas:    1.0000    
L=2  Nsemic=0  Cnfigmx=3
          i=1  nzeta=1  polorb=0  (3d)
            splnorm:   0.15000    
               vcte:    14.478    
               rinn:    4.3208    
               qcoe:    0.0000    
               qyuk:    0.0000    
               qwid:   0.10000E-01
                rcs:    6.2254    
            lambdas:    1.0000    
-------------------------------------------------------------------------------
L=0  Nkbl=1  erefs: 0.17977+309
L=1  Nkbl=1  erefs: 0.17977+309
===============================================================================
</basis_specs>

atom: Called for C                     (Z =   6)
NOTE: C pseudopotential has channels up to l= 1
NOTE: PAOs with higher l will be generated with V_local

read_vps: Pseudopotential generation method:
read_vps: ONCVPSP-3.Hamann's oncvpsp                        
Valence charge in pseudo generation:    4.00000

read_vps: Pseudopotential includes a core correction:
read_vps: Pseudo-core for xc-correction

xc_check: Exchange-correlation functional:
xc_check: GGA Perdew, Burke & Ernzerhof 1996
Got Vlocal (oncv-fit) from psml data
Choosing vlocal chloc cutoff:  4.139772
qtot up to nchloc:    3.99998844
atom: Maximum radius for chlocal:    4.13977
atom: Maximum radius for r*vlocal+2*Zval:    4.13977
Reading KB projs from C psml data
Using scalar-relativistic projectors in PSML file

PSML: Kleinman-Bylander projectors: 
   l= 0   rc=  1.231096   Ekb= 12.963096
   l= 0   rc=  1.231096   Ekb=  0.771007
   l= 1   rc=  1.294237   Ekb= -8.399923
   l= 1   rc=  1.294237   Ekb= -1.755033

PSML: Total number of  Kleinman-Bylander projectors:   8
atom: -------------------------------------------------------------------------

atom: SANKEY-TYPE ORBITALS:

atom: basis set generated (by rescaling the valence charge)
atom: for a cation of charge   0.9994

SPLIT: Orbitals with angular momentum L= 0

SPLIT: Basis orbitals for state 2s

   izeta = 1
                 lambda =    1.000000
                     rc =    6.099293
                 energy =   -2.079355
                kinetic =    1.090115
    potential(screened) =   -3.169470
       potential(ionic) =   -5.727963

SPLIT: Orbitals with angular momentum L= 1

SPLIT: Basis orbitals for state 2p

   izeta = 1
                 lambda =    1.000000
                     rc =    6.740804
                 energy =   -1.441657
                kinetic =    3.222058
    potential(screened) =   -4.663715
       potential(ionic) =   -7.206130
*Note: V_local used for l= 2

** Using vlocal for PAOs with L= 2

SPLIT: Orbitals with angular momentum L= 2

SPLIT: Basis orbitals for state 3d

   izeta = 1
                 lambda =    1.000000
                     rc =    6.253707
                 energy =    0.017329
                kinetic =    1.197074
    potential(screened) =   -1.179745
       potential(ionic) =   -2.838380
atom: Total number of Sankey-type orbitals:  9

atm_pop: Valence configuration (for local Pseudopot. screening):
 2s( 2.00)                                                            
 2p( 2.00)                                                            
 3d( 0.00)                                                            
Vna: chval, zval:    4.00000   4.00000

Vna:  Cut-off radius for the neutral-atom potential:   6.740804
comcore: Pseudo-core radius Rcore=  1.682861

atom: _________________________________________________________________________

prinput: Basis input 

PAO.BasisType split     

%block ChemicalSpeciesLabel
    1    6 C                       # Species index, atomic number, species label
%endblock ChemicalSpeciesLabel

%block PAO.Basis                 # Define Basis set
# WARNING: This information might be incomplete!
C                     3   0.999            # Label, l-shells, ionic net charge
 n=2   0   1                         # n, l, Nzeta 
   6.099   
   1.000   
 n=2   1   1                         # n, l, Nzeta 
   6.741   
   1.000   
 n=3   2   1                         # n, l, Nzeta 
   6.254   
   1.000   
%endblock PAO.Basis

prinput: ----------------------------------------------------------------------

Dumping basis to NetCDF file C.ion.nc
coor:   Atomic-coordinates input format  =     Cartesian coordinates
coor:                                          (in Angstroms)

siesta: WARNING: XV file not found

siesta: Atomic coordinates (Bohr) and species
siesta:      2.68394   0.00000  34.55194  1        1
siesta:     10.73577   0.00000  34.52304  1        2
siesta:     18.78760   0.00000  34.56680  1        3
siesta:     26.83943   0.00000  34.56728  1        4
siesta:     34.89126   0.00000  34.47945  1        5
siesta:     42.94309   0.00000  34.55763  1        6
siesta:     50.99492   0.00000  34.55032  1        7
siesta:     59.04675   0.00000  34.54385  1        8
siesta:     67.09858   0.00000  34.46518  1        9
siesta:      6.70986   2.32436  34.44319  1       10
siesta:     14.76169   2.32436  34.57652  1       11
siesta:     22.81352   2.32436  34.60343  1       12
siesta:     30.86535   2.32436  34.52952  1       13
siesta:     38.91718   2.32436  34.58835  1       14
siesta:     46.96901   2.32436  34.58412  1       15
siesta:     55.02084   2.32436  34.55389  1       16
siesta:     63.07267   2.32436  34.59646  1       17
siesta:     71.12450   2.32436  34.61366  1       18
siesta:     10.73577   4.64873  34.56240  1       19
siesta:     18.78760   4.64873  34.58687  1       20
siesta:     26.83943   4.64873  34.57403  1       21
siesta:     34.89126   4.64873  34.57248  1       22
siesta:     42.94309   4.64873  34.52060  1       23
siesta:     50.99492   4.64873  34.54265  1       24
siesta:     59.04675   4.64873  34.48377  1       25
siesta:     67.09858   4.64873  34.57856  1       26
siesta:      6.70986   6.97309  34.50789  1       27
siesta:     14.76169   6.97309  34.56861  1       28
siesta:     22.81352   6.97309  34.56517  1       29
siesta:     30.86535   6.97309  34.53708  1       30
siesta:     38.91718   6.97309  34.55959  1       31
siesta:     46.96901   6.97309  34.58302  1       32
siesta:     55.02084   6.97309  34.50320  1       33
siesta:     63.07267   6.97309  34.59066  1       34
siesta:     71.12450   6.97309  34.56468  1       35
siesta:     10.73577   9.29745  34.51415  1       36
siesta:     18.78760   9.29745  34.54511  1       37
siesta:     26.83943   9.29745  34.58736  1       38
siesta:     34.89126   9.29745  34.58170  1       39
siesta:     42.94309   9.29745  34.59997  1       40
siesta:     50.99492   9.29745  34.60710  1       41
siesta:     59.04675   9.29745  34.61319  1       42
siesta:     67.09858   9.29745  34.52161  1       43
siesta:     75.15041   9.29745  34.55416  1       44
siesta:     14.76169  11.62182  34.56612  1       45
siesta:     22.81352  11.62182  34.61184  1       46
siesta:     30.86535  11.62182  34.51001  1       47
siesta:     38.91718  11.62182  34.60996  1       48
siesta:     46.96901  11.62182  34.45557  1       49
siesta:     55.02084  11.62182  34.47578  1       50
siesta:     63.07267  11.62182  34.53349  1       51
siesta:     71.12450  11.62182  34.53948  1       52
siesta:     10.73577  13.94618  34.56451  1       53
siesta:     18.78760  13.94618  34.52903  1       54
siesta:     26.83943  13.94618  34.58551  1       55
siesta:     34.89126  13.94618  34.59374  1       56
siesta:     42.94309  13.94618  34.58271  1       57
siesta:     50.99492  13.94618  34.50809  1       58
siesta:     59.04675  13.94618  34.55185  1       59
siesta:     67.09858  13.94618  34.48143  1       60
siesta:     75.15041  13.94618  34.53562  1       61
siesta:     14.76169  16.27054  34.54139  1       62
siesta:     22.81352  16.27054  34.55259  1       63
siesta:     30.86535  16.27054  34.62044  1       64
siesta:     38.91718  16.27054  34.47853  1       65
siesta:     46.96901  16.27054  34.54231  1       66
siesta:     55.02084  16.27054  34.56664  1       67
siesta:     63.07267  16.27054  34.54164  1       68
siesta:     71.12450  16.27054  34.54308  1       69
siesta:     79.17633  16.27054  34.52102  1       70
siesta:     18.78760  18.59491  34.60853  1       71
siesta:     26.83943  18.59491  34.51032  1       72
siesta:     34.89126  18.59491  34.61925  1       73
siesta:     42.94309  18.59491  34.51525  1       74
siesta:     50.99492  18.59491  34.57509  1       75
siesta:     59.04675  18.59491  34.58458  1       76
siesta:     67.09858  18.59491  34.53640  1       77
siesta:     75.15041  18.59491  34.60829  1       78
siesta:     14.76169  20.91927  34.52441  1       79
siesta:     22.81352  20.91927  34.58710  1       80
siesta:     30.86535  20.91927  34.53504  1       81
siesta:     38.91718  20.91927  34.54948  1       82
siesta:     46.96901  20.91927  34.53390  1       83
siesta:     55.02084  20.91927  34.55894  1       84
siesta:     63.07267  20.91927  34.53223  1       85
siesta:     71.12450  20.91927  34.58973  1       86
siesta:     79.17633  20.91927  34.55496  1       87
siesta:     18.78760  23.24363  34.55695  1       88
siesta:     26.83943  23.24363  34.61173  1       89
siesta:     34.89126  23.24363  34.54302  1       90
siesta:     42.94309  23.24363  34.51979  1       91
siesta:     50.99492  23.24363  34.47497  1       92
siesta:     59.04675  23.24363  34.58048  1       93
siesta:     67.09858  23.24363  34.58609  1       94
siesta:     75.15041  23.24363  34.51257  1       95
siesta:     83.20224  23.24363  34.57968  1       96
siesta:     22.81352  25.56799  34.58214  1       97
siesta:     30.86535  25.56799  34.56449  1       98
siesta:     38.91718  25.56799  34.55087  1       99
siesta:     46.96901  25.56799  34.57610  1      100
siesta:     55.02084  25.56799  34.55204  1      101
siesta:     63.07267  25.56799  34.52074  1      102
siesta:     71.12450  25.56799  34.53387  1      103
siesta:     79.17633  25.56799  34.59336  1      104
siesta:     18.78760  27.89236  34.58375  1      105
siesta:     26.83943  27.89236  34.62507  1      106
siesta:     34.89126  27.89236  34.50449  1      107
siesta:     42.94309  27.89236  34.58781  1      108
siesta:     50.99492  27.89236  34.57690  1      109
siesta:     59.04675  27.89236  34.60581  1      110
siesta:     67.09858  27.89236  34.51151  1      111
siesta:     75.15041  27.89236  34.53325  1      112
siesta:     83.20224  27.89236  34.59937  1      113
siesta:     22.81352  30.21672  34.59869  1      114
siesta:     30.86535  30.21672  34.61745  1      115
siesta:     38.91718  30.21672  34.57004  1      116
siesta:     46.96901  30.21672  34.54990  1      117
siesta:     55.02084  30.21672  34.61902  1      118
siesta:     63.07267  30.21672  34.55257  1      119
siesta:     71.12450  30.21672  34.58974  1      120
siesta:     79.17633  30.21672  34.57312  1      121
siesta:     87.22816  30.21672  34.60500  1      122
siesta:     26.83943  32.54108  34.56705  1      123
siesta:     34.89126  32.54108  34.53590  1      124
siesta:     42.94309  32.54108  34.54823  1      125
siesta:     50.99492  32.54108  34.56494  1      126
siesta:     59.04675  32.54108  34.59592  1      127
siesta:     67.09858  32.54108  34.57197  1      128
siesta:     75.15041  32.54108  34.58497  1      129
siesta:     83.20224  32.54108  34.58005  1      130
siesta:     22.81352  34.86545  34.58281  1      131
siesta:     30.86535  34.86545  34.58355  1      132
siesta:     38.91718  34.86545  34.59031  1      133
siesta:     46.96901  34.86545  34.47915  1      134
siesta:     55.02084  34.86545  34.51227  1      135
siesta:     63.07267  34.86545  34.56379  1      136
siesta:     71.12450  34.86545  34.50979  1      137
siesta:     79.17633  34.86545  34.55850  1      138
siesta:     87.22816  34.86545  34.54160  1      139
siesta:     26.83943  37.18981  34.53489  1      140
siesta:     34.89126  37.18981  34.56144  1      141
siesta:     42.94309  37.18981  34.60779  1      142
siesta:     50.99492  37.18981  34.58585  1      143
siesta:     59.04675  37.18981  34.57668  1      144
siesta:     67.09858  37.18981  34.51668  1      145
siesta:     75.15041  37.18981  34.54773  1      146
siesta:     83.20224  37.18981  34.55615  1      147
siesta:     91.25407  37.18981  34.54477  1      148
siesta:     30.86535  39.51417  34.54016  1      149
siesta:     38.91718  39.51417  34.62396  1      150
siesta:     46.96901  39.51417  34.60277  1      151
siesta:     55.02084  39.51417  34.53137  1      152
siesta:     63.07267  39.51417  34.49432  1      153
siesta:     71.12450  39.51417  34.57387  1      154
siesta:     79.17633  39.51417  34.56230  1      155
siesta:     87.22816  39.51417  34.54398  1      156
siesta:     26.83943  41.83854  34.52598  1      157
siesta:     34.89126  41.83854  34.60772  1      158
siesta:     42.94309  41.83854  34.52282  1      159
siesta:     50.99492  41.83854  34.60513  1      160
siesta:     59.04675  41.83854  34.54513  1      161
siesta:     67.09858  41.83854  34.56693  1      162
siesta:     75.15041  41.83854  34.58556  1      163
siesta:     83.20224  41.83854  34.58043  1      164
siesta:     91.25407  41.83854  34.55279  1      165
siesta:     30.86535  44.16290  34.55617  1      166
siesta:     38.91718  44.16290  34.50378  1      167
siesta:     46.96901  44.16290  34.51692  1      168
siesta:     55.02084  44.16290  34.50188  1      169
siesta:     63.07267  44.16290  34.54061  1      170
siesta:     71.12450  44.16290  34.57403  1      171
siesta:     79.17633  44.16290  34.52026  1      172
siesta:     87.22816  44.16290  34.56848  1      173
siesta:     95.27999  44.16290  34.59113  1      174
siesta:     34.89126  46.48726  34.46024  1      175
siesta:     42.94309  46.48726  34.49910  1      176
siesta:     50.99492  46.48726  34.56608  1      177
siesta:     59.04675  46.48726  34.57830  1      178
siesta:     67.09858  46.48726  34.57955  1      179
siesta:     75.15041  46.48726  34.58098  1      180
siesta:     83.20224  46.48726  34.59114  1      181
siesta:     91.25407  46.48726  34.58654  1      182
siesta:     30.86535  48.81163  34.57541  1      183
siesta:     38.91718  48.81163  34.55877  1      184
siesta:     46.96901  48.81163  34.54207  1      185
siesta:     55.02084  48.81163  34.56375  1      186
siesta:     63.07267  48.81163  34.55785  1      187
siesta:     71.12450  48.81163  34.58450  1      188
siesta:     79.17633  48.81163  34.59521  1      189
siesta:     87.22816  48.81163  34.57082  1      190
siesta:     95.27999  48.81163  34.52135  1      191
siesta:     34.89126  51.13599  34.57832  1      192
siesta:     42.94309  51.13599  34.55204  1      193
siesta:     50.99492  51.13599  34.55082  1      194
siesta:     59.04675  51.13599  34.56521  1      195
siesta:     67.09858  51.13599  34.49498  1      196
siesta:     75.15041  51.13599  34.54060  1      197
siesta:     83.20224  51.13599  34.53220  1      198
siesta:     91.25407  51.13599  34.50265  1      199
siesta:     99.30590  51.13599  34.58709  1      200
siesta:     38.91718  53.46035  34.50569  1      201
siesta:     46.96901  53.46035  34.52509  1      202
siesta:     55.02084  53.46035  34.58425  1      203
siesta:     63.07267  53.46035  34.55256  1      204
siesta:     71.12450  53.46035  34.55269  1      205
siesta:     79.17633  53.46035  34.56983  1      206
siesta:     87.22816  53.46035  34.52557  1      207
siesta:     95.27999  53.46035  34.54656  1      208
siesta:     34.89126  55.78472  34.41222  1      209
siesta:     42.94309  55.78472  34.48584  1      210
siesta:     50.99492  55.78472  34.57115  1      211
siesta:     59.04675  55.78472  34.53563  1      212
siesta:     67.09858  55.78472  34.54204  1      213
siesta:     75.15041  55.78472  34.55276  1      214
siesta:     83.20224  55.78472  34.59077  1      215
siesta:     91.25407  55.78472  34.58232  1      216
siesta:     99.30590  55.78472  34.52579  1      217
siesta:      5.36789   0.00000  34.55883  1      218
siesta:     13.41972   0.00000  34.47242  1      219
siesta:     21.47155   0.00000  34.48441  1      220
siesta:     29.52338   0.00000  34.56279  1      221
siesta:     37.57521   0.00000  34.59562  1      222
siesta:     45.62704   0.00000  34.55996  1      223
siesta:     53.67887   0.00000  34.54538  1      224
siesta:     61.73070   0.00000  34.56242  1      225
siesta:     69.78253   0.00000  34.48335  1      226
siesta:      9.39380   2.32436  34.59479  1      227
siesta:     17.44563   2.32436  34.56045  1      228
siesta:     25.49746   2.32436  34.50466  1      229
siesta:     33.54929   2.32436  34.60797  1      230
siesta:     41.60112   2.32436  34.55501  1      231
siesta:     49.65295   2.32436  34.60809  1      232
siesta:     57.70478   2.32436  34.54000  1      233
siesta:     65.75661   2.32436  34.53140  1      234
siesta:      5.36789   4.64873  34.49925  1      235
siesta:     13.41972   4.64873  34.52058  1      236
siesta:     21.47155   4.64873  34.56361  1      237
siesta:     29.52338   4.64873  34.58080  1      238
siesta:     37.57521   4.64873  34.54322  1      239
siesta:     45.62704   4.64873  34.58627  1      240
siesta:     53.67887   4.64873  34.50900  1      241
siesta:     61.73070   4.64873  34.55616  1      242
siesta:     69.78253   4.64873  34.55662  1      243
siesta:      9.39380   6.97309  34.56638  1      244
siesta:     17.44563   6.97309  34.53236  1      245
siesta:     25.49746   6.97309  34.55564  1      246
siesta:     33.54929   6.97309  34.55299  1      247
siesta:     41.60112   6.97309  34.58480  1      248
siesta:     49.65295   6.97309  34.60614  1      249
siesta:     57.70478   6.97309  34.60006  1      250
siesta:     65.75661   6.97309  34.59058  1      251
siesta:     73.80844   6.97309  34.60683  1      252
siesta:     13.41972   9.29745  34.54481  1      253
siesta:     21.47155   9.29745  34.62047  1      254
siesta:     29.52338   9.29745  34.58126  1      255
siesta:     37.57521   9.29745  34.54594  1      256
siesta:     45.62704   9.29745  34.54082  1      257
siesta:     53.67887   9.29745  34.51559  1      258
siesta:     61.73070   9.29745  34.54809  1      259
siesta:     69.78253   9.29745  34.44831  1      260
siesta:      9.39380  11.62182  34.53283  1      261
siesta:     17.44563  11.62182  34.57837  1      262
siesta:     25.49746  11.62182  34.58777  1      263
siesta:     33.54929  11.62182  34.47070  1      264
siesta:     41.60112  11.62182  34.60176  1      265
siesta:     49.65295  11.62182  34.54163  1      266
siesta:     57.70478  11.62182  34.56126  1      267
siesta:     65.75661  11.62182  34.47165  1      268
siesta:     73.80844  11.62182  34.52354  1      269
siesta:     13.41972  13.94618  34.51439  1      270
siesta:     21.47155  13.94618  34.53108  1      271
siesta:     29.52338  13.94618  34.45884  1      272
siesta:     37.57521  13.94618  34.56653  1      273
siesta:     45.62704  13.94618  34.57775  1      274
siesta:     53.67887  13.94618  34.54308  1      275
siesta:     61.73070  13.94618  34.50403  1      276
siesta:     69.78253  13.94618  34.49615  1      277
siesta:     77.83436  13.94618  34.57260  1      278
siesta:     17.44563  16.27054  34.56188  1      279
siesta:     25.49746  16.27054  34.62055  1      280
siesta:     33.54929  16.27054  34.52164  1      281
siesta:     41.60112  16.27054  34.56211  1      282
siesta:     49.65295  16.27054  34.53216  1      283
siesta:     57.70478  16.27054  34.52188  1      284
siesta:     65.75661  16.27054  34.56505  1      285
siesta:     73.80844  16.27054  34.54503  1      286
siesta:     13.41972  18.59491  34.48975  1      287
siesta:     21.47155  18.59491  34.57302  1      288
siesta:     29.52338  18.59491  34.58071  1      289
siesta:     37.57521  18.59491  34.60195  1      290
siesta:     45.62704  18.59491  34.59783  1      291
siesta:     53.67887  18.59491  34.56268  1      292
siesta:     61.73070  18.59491  34.61247  1      293
siesta:     69.78253  18.59491  34.58284  1      294
siesta:     77.83436  18.59491  34.56243  1      295
siesta:     17.44563  20.91927  34.57481  1      296
siesta:     25.49746  20.91927  34.50365  1      297
siesta:     33.54929  20.91927  34.52646  1      298
siesta:     41.60112  20.91927  34.57837  1      299
siesta:     49.65295  20.91927  34.57798  1      300
siesta:     57.70478  20.91927  34.56393  1      301
siesta:     65.75661  20.91927  34.52855  1      302
siesta:     73.80844  20.91927  34.59305  1      303
siesta:     81.86027  20.91927  34.56607  1      304
siesta:     21.47155  23.24363  34.58313  1      305
siesta:     29.52338  23.24363  34.58139  1      306
siesta:     37.57521  23.24363  34.50657  1      307
siesta:     45.62704  23.24363  34.60276  1      308
siesta:     53.67887  23.24363  34.52560  1      309
siesta:     61.73070  23.24363  34.58877  1      310
siesta:     69.78253  23.24363  34.60148  1      311
siesta:     77.83436  23.24363  34.59280  1      312
siesta:     17.44563  25.56799  34.57993  1      313
siesta:     25.49746  25.56799  34.55591  1      314
siesta:     33.54929  25.56799  34.58825  1      315
siesta:     41.60112  25.56799  34.54727  1      316
siesta:     49.65295  25.56799  34.51321  1      317
siesta:     57.70478  25.56799  34.59087  1      318
siesta:     65.75661  25.56799  34.56425  1      319
siesta:     73.80844  25.56799  34.51989  1      320
siesta:     81.86027  25.56799  34.52540  1      321
siesta:     21.47155  27.89236  34.55937  1      322
siesta:     29.52338  27.89236  34.54169  1      323
siesta:     37.57521  27.89236  34.61809  1      324
siesta:     45.62704  27.89236  34.55326  1      325
siesta:     53.67887  27.89236  34.64049  1      326
siesta:     61.73070  27.89236  34.50616  1      327
siesta:     69.78253  27.89236  34.48489  1      328
siesta:     77.83436  27.89236  34.51423  1      329
siesta:     85.88619  27.89236  34.53776  1      330
siesta:     25.49746  30.21672  34.47550  1      331
siesta:     33.54929  30.21672  34.54223  1      332
siesta:     41.60112  30.21672  34.55220  1      333
siesta:     49.65295  30.21672  34.60236  1      334
siesta:     57.70478  30.21672  34.58741  1      335
siesta:     65.75661  30.21672  34.49387  1      336
siesta:     73.80844  30.21672  34.52269  1      337
siesta:     81.86027  30.21672  34.55187  1      338
siesta:     21.47155  32.54108  34.54772  1      339
siesta:     29.52338  32.54108  34.53545  1      340
siesta:     37.57521  32.54108  34.46972  1      341
siesta:     45.62704  32.54108  34.55493  1      342
siesta:     53.67887  32.54108  34.59693  1      343
siesta:     61.73070  32.54108  34.50382  1      344
siesta:     69.78253  32.54108  34.59434  1      345
siesta:     77.83436  32.54108  34.54682  1      346
siesta:     85.88619  32.54108  34.52059  1      347
siesta:     25.49746  34.86545  34.47735  1      348
siesta:     33.54929  34.86545  34.55224  1      349
siesta:     41.60112  34.86545  34.61357  1      350
siesta:     49.65295  34.86545  34.56151  1      351
siesta:     57.70478  34.86545  34.60272  1      352
siesta:     65.75661  34.86545  34.60212  1      353
siesta:     73.80844  34.86545  34.55212  1      354
siesta:     81.86027  34.86545  34.50186  1      355
siesta:     89.91210  34.86545  34.55675  1      356
siesta:     29.52338  37.18981  34.62011  1      357
siesta:     37.57521  37.18981  34.52290  1      358
siesta:     45.62704  37.18981  34.58416  1      359
siesta:     53.67887  37.18981  34.55150  1      360
siesta:     61.73070  37.18981  34.58544  1      361
siesta:     69.78253  37.18981  34.54426  1      362
siesta:     77.83436  37.18981  34.59252  1      363
siesta:     85.88619  37.18981  34.51923  1      364
siesta:     25.49746  39.51417  34.61788  1      365
siesta:     33.54929  39.51417  34.62081  1      366
siesta:     41.60112  39.51417  34.55531  1      367
siesta:     49.65295  39.51417  34.53557  1      368
siesta:     57.70478  39.51417  34.56793  1      369
siesta:     65.75661  39.51417  34.58061  1      370
siesta:     73.80844  39.51417  34.58274  1      371
siesta:     81.86027  39.51417  34.54513  1      372
siesta:     89.91210  39.51417  34.62832  1      373
siesta:     29.52338  41.83854  34.59735  1      374
siesta:     37.57521  41.83854  34.52191  1      375
siesta:     45.62704  41.83854  34.44830  1      376
siesta:     53.67887  41.83854  34.55024  1      377
siesta:     61.73070  41.83854  34.55718  1      378
siesta:     69.78253  41.83854  34.61383  1      379
siesta:     77.83436  41.83854  34.52345  1      380
siesta:     85.88619  41.83854  34.51979  1      381
siesta:     93.93802  41.83854  34.49202  1      382
siesta:     33.54929  44.16290  34.55272  1      383
siesta:     41.60112  44.16290  34.53189  1      384
siesta:     49.65295  44.16290  34.55674  1      385
siesta:     57.70478  44.16290  34.59670  1      386
siesta:     65.75661  44.16290  34.55816  1      387
siesta:     73.80844  44.16290  34.60553  1      388
siesta:     81.86027  44.16290  34.58421  1      389
siesta:     89.91210  44.16290  34.52270  1      390
siesta:     29.52338  46.48726  34.57406  1      391
siesta:     37.57521  46.48726  34.56121  1      392
siesta:     45.62704  46.48726  34.57371  1      393
siesta:     53.67887  46.48726  34.51692  1      394
siesta:     61.73070  46.48726  34.54627  1      395
siesta:     69.78253  46.48726  34.55597  1      396
siesta:     77.83436  46.48726  34.59440  1      397
siesta:     85.88619  46.48726  34.54674  1      398
siesta:     93.93802  46.48726  34.56389  1      399
siesta:     33.54929  48.81163  34.53785  1      400
siesta:     41.60112  48.81163  34.50536  1      401
siesta:     49.65295  48.81163  34.54057  1      402
siesta:     57.70478  48.81163  34.55433  1      403
siesta:     65.75661  48.81163  34.52522  1      404
siesta:     73.80844  48.81163  34.57420  1      405
siesta:     81.86027  48.81163  34.53568  1      406
siesta:     89.91210  48.81163  34.56175  1      407
siesta:     97.96393  48.81163  34.55610  1      408
siesta:     37.57521  51.13599  34.58335  1      409
siesta:     45.62704  51.13599  34.55133  1      410
siesta:     53.67887  51.13599  34.58932  1      411
siesta:     61.73070  51.13599  34.56138  1      412
siesta:     69.78253  51.13599  34.56663  1      413
siesta:     77.83436  51.13599  34.54377  1      414
siesta:     85.88619  51.13599  34.58950  1      415
siesta:     93.93802  51.13599  34.61577  1      416
siesta:     33.54929  53.46035  34.56127  1      417
siesta:     41.60112  53.46035  34.52626  1      418
siesta:     49.65295  53.46035  34.53101  1      419
siesta:     57.70478  53.46035  34.51561  1      420
siesta:     65.75661  53.46035  34.51173  1      421
siesta:     73.80844  53.46035  34.54908  1      422
siesta:     81.86027  53.46035  34.57021  1      423
siesta:     89.91210  53.46035  34.56473  1      424
siesta:     97.96393  53.46035  34.54686  1      425
siesta:     37.57521  55.78472  34.55937  1      426
siesta:     45.62704  55.78472  34.61953  1      427
siesta:     53.67887  55.78472  34.55309  1      428
siesta:     61.73070  55.78472  34.45466  1      429
siesta:     69.78253  55.78472  34.48830  1      430
siesta:     77.83436  55.78472  34.59984  1      431
siesta:     85.88619  55.78472  34.59357  1      432
siesta:     93.93802  55.78472  34.54457  1      433
siesta:    101.98985  55.78472  34.60700  1      434
siesta:      6.85210   1.86378  40.96420  1      435
siesta:     14.88537   1.31750  40.99710  1      436
siesta:     22.91865   0.77122  41.04664  1      437
siesta:     30.95193   0.22494  41.00780  1      438
siesta:     38.98520  -0.32134  41.12964  1      439
siesta:     47.01848  -0.86762  41.02210  1      440
siesta:     55.05176  -1.41390  41.09841  1      441
siesta:     63.08504  -1.96018  41.02311  1      442
siesta:      2.99315   4.45592  41.02990  1      443
siesta:     11.02643   3.90964  41.07864  1      444
siesta:     19.05971   3.36336  41.07783  1      445
siesta:     27.09299   2.81709  41.10864  1      446
siesta:     35.12626   2.27081  41.05226  1      447
siesta:     43.15954   1.72453  41.07599  1      448
siesta:     51.19282   1.17825  41.02722  1      449
siesta:     59.22610   0.63197  41.02878  1      450
siesta:     67.25937   0.08569  41.05315  1      451
siesta:      7.16749   6.50179  41.04342  1      452
siesta:     15.20077   5.95551  41.00664  1      453
siesta:     23.23404   5.40923  41.06283  1      454
siesta:     31.26732   4.86295  40.98717  1      455
siesta:     39.30060   4.31667  41.00938  1      456
siesta:     47.33388   3.77040  41.06016  1      457
siesta:     55.36715   3.22412  41.02083  1      458
siesta:     63.40043   2.67784  41.03374  1      459
siesta:     11.34183   8.54766  40.99836  1      460
siesta:     19.37510   8.00138  41.00867  1      461
siesta:     27.40838   7.45510  41.03382  1      462
siesta:     35.44166   6.90882  41.02413  1      463
siesta:     43.47494   6.36254  41.03201  1      464
siesta:     51.50821   5.81626  41.05168  1      465
siesta:     59.54149   5.26998  41.12220  1      466
siesta:     67.57477   4.72371  41.09896  1      467
siesta:      7.48288  11.13980  40.96413  1      468
siesta:     15.51616  10.59353  40.99381  1      469
siesta:     23.54944  10.04725  41.01596  1      470
siesta:     31.58272   9.50097  41.00261  1      471
siesta:     39.61599   8.95469  41.05034  1      472
siesta:     47.64927   8.40841  41.00034  1      473
siesta:     55.68255   7.86213  40.98244  1      474
siesta:     63.71583   7.31585  41.10690  1      475
siesta:     71.74910   6.76957  41.05793  1      476
siesta:     11.65722  13.18567  41.01811  1      477
siesta:     19.69050  12.63939  41.02263  1      478
siesta:     27.72377  12.09312  40.99836  1      479
siesta:     35.75705  11.54684  41.02391  1      480
siesta:     43.79033  11.00056  41.01488  1      481
siesta:     51.82361  10.45428  41.02582  1      482
siesta:     59.85688   9.90800  41.02482  1      483
siesta:     67.89016   9.36172  41.00299  1      484
siesta:     15.83156  15.23154  41.04023  1      485
siesta:     23.86483  14.68526  41.05477  1      486
siesta:     31.89811  14.13898  41.00258  1      487
siesta:     39.93139  13.59270  41.02533  1      488
siesta:     47.96467  13.04643  41.02046  1      489
siesta:     55.99794  12.50015  40.99714  1      490
siesta:     64.03122  11.95387  41.04847  1      491
siesta:     72.06450  11.40759  41.02345  1      492
siesta:     11.97261  17.82369  41.10998  1      493
siesta:     20.00589  17.27741  41.09342  1      494
siesta:     28.03917  16.73113  40.96786  1      495
siesta:     36.07245  16.18485  40.98621  1      496
siesta:     44.10572  15.63857  41.07138  1      497
siesta:     52.13900  15.09229  40.97877  1      498
siesta:     60.17228  14.54601  40.96754  1      499
siesta:     68.20556  13.99974  41.09328  1      500
siesta:     76.23883  13.45346  40.97392  1      501
siesta:     16.14695  19.86956  41.15891  1      502
siesta:     24.18023  19.32328  41.03429  1      503
siesta:     32.21350  18.77700  41.03813  1      504
siesta:     40.24678  18.23072  41.02574  1      505
siesta:     48.28006  17.68444  40.96967  1      506
siesta:     56.31334  17.13816  41.08048  1      507
siesta:     64.34661  16.59188  40.97595  1      508
siesta:     72.37989  16.04560  41.00367  1      509
siesta:     20.32129  21.91542  41.00974  1      510
siesta:     28.35456  21.36914  40.98185  1      511
siesta:     36.38784  20.82287  41.06068  1      512
siesta:     44.42112  20.27659  41.04019  1      513
siesta:     52.45440  19.73031  41.02121  1      514
siesta:     60.48767  19.18403  41.06252  1      515
siesta:     68.52095  18.63775  41.05019  1      516
siesta:     76.55423  18.09147  41.00571  1      517
siesta:     16.46234  24.50757  40.97999  1      518
siesta:     24.49562  23.96129  41.07950  1      519
siesta:     32.52890  23.41501  41.10956  1      520
siesta:     40.56218  22.86873  41.06882  1      521
siesta:     48.59545  22.32246  41.01447  1      522
siesta:     56.62873  21.77618  41.02171  1      523
siesta:     64.66201  21.22990  41.05439  1      524
siesta:     72.69529  20.68362  41.06658  1      525
siesta:     80.72856  20.13734  41.03107  1      526
siesta:     20.63668  26.55344  41.05526  1      527
siesta:     28.66996  26.00716  41.06320  1      528
siesta:     36.70323  25.46088  41.08652  1      529
siesta:     44.73651  24.91460  41.00725  1      530
siesta:     52.76979  24.36832  41.01239  1      531
siesta:     60.80307  23.82204  41.11577  1      532
siesta:     68.83634  23.27577  41.00848  1      533
siesta:     76.86962  22.72949  41.04693  1      534
siesta:     24.81102  28.59931  41.01441  1      535
siesta:     32.84429  28.05303  40.97267  1      536
siesta:     40.87757  27.50675  41.05406  1      537
siesta:     48.91085  26.96047  41.07993  1      538
siesta:     56.94413  26.41419  41.04856  1      539
siesta:     64.97740  25.86791  41.03711  1      540
siesta:     73.01068  25.32163  41.00867  1      541
siesta:     81.04396  24.77535  41.05034  1      542
siesta:     20.95207  31.19145  41.04273  1      543
siesta:     28.98535  30.64517  41.03154  1      544
siesta:     37.01863  30.09890  41.00961  1      545
siesta:     45.05191  29.55262  40.99735  1      546
siesta:     53.08518  29.00634  41.02386  1      547
siesta:     61.11846  28.46006  40.99383  1      548
siesta:     69.15174  27.91378  41.01770  1      549
siesta:     77.18502  27.36750  41.02629  1      550
siesta:     85.21829  26.82122  40.99200  1      551
siesta:     25.12641  33.23732  41.06021  1      552
siesta:     33.15969  32.69104  41.08326  1      553
siesta:     41.19296  32.14476  41.04625  1      554
siesta:     49.22624  31.59848  40.99975  1      555
siesta:     57.25952  31.05221  41.03398  1      556
siesta:     65.29280  30.50593  41.02246  1      557
siesta:     73.32607  29.95965  41.01087  1      558
siesta:     81.35935  29.41337  41.08394  1      559
siesta:     29.30075  35.28319  41.03420  1      560
siesta:     37.33402  34.73691  40.96739  1      561
siesta:     45.36730  34.19063  40.97581  1      562
siesta:     53.40058  33.64435  41.08949  1      563
siesta:     61.43386  33.09807  41.00026  1      564
siesta:     69.46713  32.55180  40.98483  1      565
siesta:     77.50041  32.00552  41.04526  1      566
siesta:     85.53369  31.45924  41.05155  1      567
siesta:     25.44180  37.87534  40.99126  1      568
siesta:     33.47508  37.32906  41.08854  1      569
siesta:     41.50836  36.78278  41.01863  1      570
siesta:     49.54164  36.23650  41.05075  1      571
siesta:     57.57491  35.69022  41.06893  1      572
siesta:     65.60819  35.14394  40.98057  1      573
siesta:     73.64147  34.59766  41.01075  1      574
siesta:     81.67475  34.05138  41.04006  1      575
siesta:     89.70802  33.50511  41.01191  1      576
siesta:     29.61614  39.92120  41.02307  1      577
siesta:     37.64942  39.37493  41.03121  1      578
siesta:     45.68269  38.82865  41.05497  1      579
siesta:     53.71597  38.28237  41.06930  1      580
siesta:     61.74925  37.73609  41.04550  1      581
siesta:     69.78253  37.18981  41.04521  1      582
siesta:     77.81580  36.64353  41.09896  1      583
siesta:     85.84908  36.09725  41.05551  1      584
siesta:     33.79048  41.96707  41.04554  1      585
siesta:     41.82375  41.42079  41.02061  1      586
siesta:     49.85703  40.87451  41.04060  1      587
siesta:     57.89031  40.32824  41.05050  1      588
siesta:     65.92359  39.78196  40.97749  1      589
siesta:     73.95686  39.23568  41.01098  1      590
siesta:     81.99014  38.68940  40.98436  1      591
siesta:     90.02342  38.14312  41.08535  1      592
siesta:     29.93153  44.55922  40.97606  1      593
siesta:     37.96481  44.01294  41.03951  1      594
siesta:     45.99809  43.46666  41.03532  1      595
siesta:     54.03137  42.92038  40.99964  1      596
siesta:     62.06464  42.37410  41.01342  1      597
siesta:     70.09792  41.82783  41.08099  1      598
siesta:     78.13120  41.28155  41.08673  1      599
siesta:     86.16448  40.73527  41.00335  1      600
siesta:     94.19775  40.18899  41.01908  1      601
siesta:     34.10587  46.60509  41.11527  1      602
siesta:     42.13915  46.05881  41.00860  1      603
siesta:     50.17243  45.51253  41.03576  1      604
siesta:     58.20570  44.96625  41.03476  1      605
siesta:     66.23898  44.41997  41.00246  1      606
siesta:     74.27226  43.87369  41.12742  1      607
siesta:     82.30554  43.32741  40.99527  1      608
siesta:     90.33881  42.78114  41.02116  1      609
siesta:     38.28021  48.65096  41.03318  1      610
siesta:     46.31348  48.10468  41.03762  1      611
siesta:     54.34676  47.55840  41.10984  1      612
siesta:     62.38004  47.01212  41.00334  1      613
siesta:     70.41332  46.46584  41.12612  1      614
siesta:     78.44659  45.91956  41.05411  1      615
siesta:     86.47987  45.37328  41.04421  1      616
siesta:     94.51315  44.82700  41.07440  1      617
siesta:     34.42126  51.24310  41.01678  1      618
siesta:     42.45454  50.69682  41.06638  1      619
siesta:     50.48782  50.15054  41.03899  1      620
siesta:     58.52110  49.60427  41.01784  1      621
siesta:     66.55437  49.05799  41.03271  1      622
siesta:     74.58765  48.51171  41.05066  1      623
siesta:     82.62093  47.96543  41.06358  1      624
siesta:     90.65421  47.41915  41.00384  1      625
siesta:     98.68748  46.87287  41.06164  1      626
siesta:     38.59560  53.28897  41.04308  1      627
siesta:     46.62888  52.74269  41.01949  1      628
siesta:     54.66216  52.19641  41.05845  1      629
siesta:     62.69543  51.65013  41.05582  1      630
siesta:     70.72871  51.10385  41.03441  1      631
siesta:     78.76199  50.55758  41.02706  1      632
siesta:     86.79527  50.01130  41.06639  1      633
siesta:     94.82854  49.46502  41.09088  1      634
siesta:     42.76994  55.33484  41.03094  1      635
siesta:     50.80321  54.78856  41.00433  1      636
siesta:     58.83649  54.24228  41.03567  1      637
siesta:     66.86977  53.69600  41.08514  1      638
siesta:     74.90305  53.14972  41.00140  1      639
siesta:     82.93632  52.60344  41.05067  1      640
siesta:     90.96960  52.05717  40.98704  1      641
siesta:     99.00288  51.51089  41.00888  1      642
siesta:     38.91099  57.92699  41.03203  1      643
siesta:     46.94427  57.38071  41.06396  1      644
siesta:     54.97755  56.83443  41.02722  1      645
siesta:     63.01083  56.28815  40.97881  1      646
siesta:     71.04410  55.74187  41.01103  1      647
siesta:     79.07738  55.19559  40.97906  1      648
siesta:     87.11066  54.64931  41.07020  1      649
siesta:     95.14394  54.10303  41.13203  1      650
siesta:    103.17721  53.55675  41.01081  1      651
siesta:      1.49658   2.22796  41.04180  1      652
siesta:      9.52985   1.68168  41.04869  1      653
siesta:     17.56313   1.13540  40.97973  1      654
siesta:     25.59641   0.58912  41.03431  1      655
siesta:     33.62969   0.04285  41.00196  1      656
siesta:     41.66296  -0.50343  41.04343  1      657
siesta:     49.69624  -1.04971  40.97136  1      658
siesta:     57.72952  -1.59599  41.00067  1      659
siesta:     65.76280  -2.14227  41.08893  1      660
siesta:      5.67091   4.27383  40.97515  1      661
siesta:     13.70419   3.72755  41.00686  1      662
siesta:     21.73747   3.18127  41.01606  1      663
siesta:     29.77075   2.63499  41.03907  1      664
siesta:     37.80402   2.08871  41.03623  1      665
siesta:     45.83730   1.54243  41.07991  1      666
siesta:     53.87058   0.99616  41.03298  1      667
siesta:     61.90385   0.44988  41.15642  1      668
siesta:      9.84525   6.31970  41.09505  1      669
siesta:     17.87853   5.77342  40.99219  1      670
siesta:     25.91180   5.22714  41.02871  1      671
siesta:     33.94508   4.68086  40.98592  1      672
siesta:     41.97836   4.13458  41.02884  1      673
siesta:     50.01164   3.58830  41.04079  1      674
siesta:     58.04491   3.04202  40.98036  1      675
siesta:     66.07819   2.49574  41.05151  1      676
siesta:      5.98631   8.91184  41.10759  1      677
siesta:     14.01958   8.36557  41.01250  1      678
siesta:     22.05286   7.81929  41.08289  1      679
siesta:     30.08614   7.27301  41.04454  1      680
siesta:     38.11942   6.72673  40.99989  1      681
siesta:     46.15269   6.18045  41.00003  1      682
siesta:     54.18597   5.63417  41.03559  1      683
siesta:     62.21925   5.08789  41.02416  1      684
siesta:     70.25253   4.54161  41.06145  1      685
siesta:     10.16064  10.95771  41.02335  1      686
siesta:     18.19392  10.41143  41.03231  1      687
siesta:     26.22720   9.86515  40.99068  1      688
siesta:     34.26048   9.31888  40.98328  1      689
siesta:     42.29375   8.77260  41.03281  1      690
siesta:     50.32703   8.22632  41.07634  1      691
siesta:     58.36031   7.68004  40.99883  1      692
siesta:     66.39359   7.13376  41.00794  1      693
siesta:     14.33498  13.00358  40.98046  1      694
siesta:     22.36826  12.45730  41.00840  1      695
siesta:     30.40153  11.91102  41.04179  1      696
siesta:     38.43481  11.36474  41.02737  1      697
siesta:     46.46809  10.81846  41.05354  1      698
siesta:     54.50137  10.27219  41.01608  1      699
siesta:     62.53464   9.72591  41.00110  1      700
siesta:     70.56792   9.17963  41.05895  1      701
siesta:     10.47604  15.59573  40.96166  1      702
siesta:     18.50931  15.04945  41.00217  1      703
siesta:     26.54259  14.50317  41.04268  1      704
siesta:     34.57587  13.95689  41.10381  1      705
siesta:     42.60915  13.41061  41.00297  1      706
siesta:     50.64242  12.86433  41.02779  1      707
siesta:     58.67570  12.31805  41.05317  1      708
siesta:     66.70898  11.77177  40.97933  1      709
siesta:     74.74226  11.22550  40.98547  1      710
siesta:     14.65037  17.64159  41.02817  1      711
siesta:     22.68365  17.09532  41.02393  1      712
siesta:     30.71693  16.54904  41.01388  1      713
siesta:     38.75021  16.00276  40.99841  1      714
siesta:     46.78348  15.45648  41.02861  1      715
siesta:     54.81676  14.91020  41.06749  1      716
siesta:     62.85004  14.36392  41.10061  1      717
siesta:     70.88332  13.81764  41.02183  1      718
siesta:     18.82471  19.68746  41.03723  1      719
siesta:     26.85799  19.14118  40.99607  1      720
siesta:     34.89126  18.59491  41.08911  1      721
siesta:     42.92454  18.04863  41.02720  1      722
siesta:     50.95782  17.50235  41.07507  1      723
siesta:     58.99110  16.95607  41.01551  1      724
siesta:     67.02437  16.40979  41.00922  1      725
siesta:     75.05765  15.86351  41.02745  1      726
siesta:     14.96577  22.27961  41.01465  1      727
siesta:     22.99904  21.73333  41.01313  1      728
siesta:     31.03232  21.18705  41.05275  1      729
siesta:     39.06560  20.64077  41.00187  1      730
siesta:     47.09888  20.09449  41.06994  1      731
siesta:     55.13215  19.54822  40.98634  1      732
siesta:     63.16543  19.00194  41.02535  1      733
siesta:     71.19871  18.45566  41.05837  1      734
siesta:     79.23199  17.90938  41.08419  1      735
siesta:     19.14010  24.32548  41.00372  1      736
siesta:     27.17338  23.77920  41.00343  1      737
siesta:     35.20666  23.23292  41.04170  1      738
siesta:     43.23994  22.68664  41.00717  1      739
siesta:     51.27321  22.14036  41.05426  1      740
siesta:     59.30649  21.59408  41.02344  1      741
siesta:     67.33977  21.04780  41.01248  1      742
siesta:     75.37305  20.50153  40.99869  1      743
siesta:     23.31444  26.37135  41.02283  1      744
siesta:     31.34772  25.82507  41.00334  1      745
siesta:     39.38099  25.27879  41.06542  1      746
siesta:     47.41427  24.73251  41.04038  1      747
siesta:     55.44755  24.18623  40.99207  1      748
siesta:     63.48083  23.63995  41.09432  1      749
siesta:     71.51410  23.09367  41.02251  1      750
siesta:     79.54738  22.54739  41.05102  1      751
siesta:     19.45550  28.96349  41.01641  1      752
siesta:     27.48877  28.41721  41.08163  1      753
siesta:     35.52205  27.87093  41.02605  1      754
siesta:     43.55533  27.32466  41.04198  1      755
siesta:     51.58861  26.77838  41.07156  1      756
siesta:     59.62188  26.23210  41.01885  1      757
siesta:     67.65516  25.68582  41.02482  1      758
siesta:     75.68844  25.13954  41.03849  1      759
siesta:     83.72172  24.59326  41.05930  1      760
siesta:     23.62983  31.00936  41.06479  1      761
siesta:     31.66311  30.46308  41.02655  1      762
siesta:     39.69639  29.91680  41.07799  1      763
siesta:     47.72967  29.37052  40.97056  1      764
siesta:     55.76294  28.82425  41.10568  1      765
siesta:     63.79622  28.27797  41.05218  1      766
siesta:     71.82950  27.73169  40.98396  1      767
siesta:     79.86278  27.18541  41.05822  1      768
siesta:     27.80417  33.05523  41.14651  1      769
siesta:     35.83745  32.50895  41.06751  1      770
siesta:     43.87072  31.96267  40.96531  1      771
siesta:     51.90400  31.41639  41.05245  1      772
siesta:     59.93728  30.87011  41.07565  1      773
siesta:     67.97056  30.32383  41.03857  1      774
siesta:     76.00383  29.77756  41.01526  1      775
siesta:     84.03711  29.23128  41.06646  1      776
siesta:     23.94523  35.64738  41.12437  1      777
siesta:     31.97850  35.10110  41.06443  1      778
siesta:     40.01178  34.55482  41.08907  1      779
siesta:     48.04506  34.00854  41.07565  1      780
siesta:     56.07834  33.46226  41.00771  1      781
siesta:     64.11161  32.91598  40.97751  1      782
siesta:     72.14489  32.36970  41.10036  1      783
siesta:     80.17817  31.82342  41.06357  1      784
siesta:     88.21145  31.27714  41.02140  1      785
siesta:     28.11956  37.69324  41.00065  1      786
siesta:     36.15284  37.14696  41.05223  1      787
siesta:     44.18612  36.60069  41.05755  1      788
siesta:     52.21940  36.05441  41.05060  1      789
siesta:     60.25267  35.50813  41.10074  1      790
siesta:     68.28595  34.96185  41.04455  1      791
siesta:     76.31923  34.41557  41.02323  1      792
siesta:     84.35251  33.86929  41.11054  1      793
siesta:     32.29390  39.73911  41.01004  1      794
siesta:     40.32718  39.19283  41.03154  1      795
siesta:     48.36045  38.64655  41.07112  1      796
siesta:     56.39373  38.10027  41.05948  1      797
siesta:     64.42701  37.55400  40.97129  1      798
siesta:     72.46029  37.00772  41.04086  1      799
siesta:     80.49356  36.46144  41.08203  1      800
siesta:     88.52684  35.91516  41.12488  1      801
siesta:     28.43496  42.33126  40.98949  1      802
siesta:     36.46824  41.78498  41.10098  1      803
siesta:     44.50151  41.23870  41.03638  1      804
siesta:     52.53479  40.69242  41.06543  1      805
siesta:     60.56807  40.14614  41.03543  1      806
siesta:     68.60134  39.59986  41.04339  1      807
siesta:     76.63462  39.05359  41.03861  1      808
siesta:     84.66790  38.50731  41.02063  1      809
siesta:     92.70118  37.96103  40.99958  1      810
siesta:     32.60929  44.37713  41.05492  1      811
siesta:     40.64257  43.83085  40.99644  1      812
siesta:     48.67585  43.28457  41.03802  1      813
siesta:     56.70913  42.73829  41.04876  1      814
siesta:     64.74240  42.19201  41.04799  1      815
siesta:     72.77568  41.64573  41.04647  1      816
siesta:     80.80896  41.09945  40.99611  1      817
siesta:     88.84224  40.55317  41.00331  1      818
siesta:     36.78363  46.42299  41.03907  1      819
siesta:     44.81691  45.87672  41.11177  1      820
siesta:     52.85018  45.33044  41.04206  1      821
siesta:     60.88346  44.78416  41.05770  1      822
siesta:     68.91674  44.23788  41.00764  1      823
siesta:     76.95002  43.69160  41.02255  1      824
siesta:     84.98329  43.14532  41.01261  1      825
siesta:     93.01657  42.59904  40.97542  1      826
siesta:     32.92469  49.01514  41.04116  1      827
siesta:     40.95797  48.46886  41.04347  1      828
siesta:     48.99124  47.92258  41.05970  1      829
siesta:     57.02452  47.37630  40.96645  1      830
siesta:     65.05780  46.83003  41.03621  1      831
siesta:     73.09108  46.28375  40.99341  1      832
siesta:     81.12435  45.73747  41.04000  1      833
siesta:     89.15763  45.19119  41.01545  1      834
siesta:     97.19091  44.64491  40.96689  1      835
siesta:     37.09902  51.06101  40.98655  1      836
siesta:     45.13230  50.51473  40.97572  1      837
siesta:     53.16558  49.96845  41.05613  1      838
siesta:     61.19886  49.42217  40.98583  1      839
siesta:     69.23213  48.87589  41.00558  1      840
siesta:     77.26541  48.32962  41.02765  1      841
siesta:     85.29869  47.78334  41.10233  1      842
siesta:     93.33197  47.23706  41.07704  1      843
siesta:     41.27336  53.10688  41.07071  1      844
siesta:     49.30664  52.56060  41.07501  1      845
siesta:     57.33991  52.01432  41.01549  1      846
siesta:     65.37319  51.46804  41.02192  1      847
siesta:     73.40647  50.92176  41.08201  1      848
siesta:     81.43975  50.37548  41.04814  1      849
siesta:     89.47302  49.82920  41.03186  1      850
siesta:     97.50630  49.28293  40.99989  1      851
siesta:     37.41442  55.69902  41.01498  1      852
siesta:     45.44770  55.15275  41.02368  1      853
siesta:     53.48097  54.60647  41.04919  1      854
siesta:     61.51425  54.06019  41.02712  1      855
siesta:     69.54753  53.51391  41.01790  1      856
siesta:     77.58081  52.96763  41.00972  1      857
siesta:     85.61408  52.42135  40.99709  1      858
siesta:     93.64736  51.87507  41.00398  1      859
siesta:    101.68064  51.32879  41.01304  1      860
siesta:     41.58875  57.74489  41.02893  1      861
siesta:     49.62203  57.19861  41.00247  1      862
siesta:     57.65531  56.65233  40.98752  1      863
siesta:     65.68859  56.10606  41.02768  1      864
siesta:     73.72186  55.55978  41.07555  1      865
siesta:     81.75514  55.01350  41.05783  1      866
siesta:     89.78842  54.46722  41.05551  1      867
siesta:     97.82170  53.92094  41.06353  1      868

siesta: System type = slab      

initatomlists: Number of atoms, orbitals, and projectors:    868  7812  6944

siesta: ******************** Simulation parameters ****************************
siesta:
siesta: The following are some of the parameters of the simulation.
siesta: A complete list of the parameters used, including default values,
siesta: can be found in file out.fdf
siesta:
redata: Spin configuration                          = none
redata: Number of spin components                   = 1
redata: Time-Reversal Symmetry                      = T
redata: Spin spiral                                 = F
redata: Long output                                 =   F
redata: Number of Atomic Species                    =        1
redata: Charge density info will appear in .RHO file
redata: Write Mulliken Pop.                         = NO
redata: Matel table size (NRTAB)                    =     1024
redata: Mesh Cutoff                                 =   300.0000 Ry
redata: Net charge of the system                    =     0.0000 |e|
redata: Min. number of SCF Iter                     =        3
redata: Max. number of SCF Iter                     =      300
redata: SCF convergence failure will abort job
redata: SCF mix quantity                            = Hamiltonian
redata: Mix DM or H after convergence               =   F
redata: Recompute H after scf cycle                 =   F
redata: Mix DM in first SCF step                    =   T
redata: Write Pulay info on disk                    =   F
redata: New DM Occupancy tolerance                  = 0.000000000001
redata: No kicks to SCF
redata: DM Mixing Weight for Kicks                  =     0.5000
redata: Require Harris convergence for SCF          =   F
redata: Harris energy tolerance for SCF             =     0.000100 eV
redata: Require DM convergence for SCF              =   T
redata: DM tolerance for SCF                        =     0.000100
redata: Require EDM convergence for SCF             =   F
redata: EDM tolerance for SCF                       =     0.001000 eV
redata: Require H convergence for SCF               =   T
redata: Hamiltonian tolerance for SCF               =     0.001000 eV
redata: Require (free) Energy convergence for SCF   =   F
redata: (free) Energy tolerance for SCF             =     0.000100 eV
redata: Using DFT-D3 dispersion                     =   T
redata: Using Saved Data (generic)                  =   F
redata: Use continuation files for DM               =   T
redata: Neglect nonoverlap interactions             =   F
redata: Method of Calculation                       = Diagonalization
redata: Electronic Temperature                      =   299.9863 K
redata: Fix the spin of the system                  =   F
redata: Max. number of TDED Iter                    =        1
redata: Number of TDED substeps                     =        3
redata: Dynamics option                             = CG coord. optimization
redata: Variable cell                               =   F
redata: Use continuation files for CG               =   F
redata: Max atomic displ per move                   =     0.2646 Ang
redata: Maximum number of optimization moves        =      200
redata: Force tolerance                             =     0.0100 eV/Ang
mix.SCF: Pulay mixing                            = Pulay
mix.SCF:    Variant                              = stable
mix.SCF:    History steps                        = 12
mix.SCF:    Linear mixing weight                 =     0.100000
mix.SCF:    Mixing weight                        =     0.100000
mix.SCF:    SVD condition                        = 0.1000E-07
redata: Save all siesta data in one NC              =   F
redata: ***********************************************************************

%block SCF.Mixers
  Pulay
%endblock SCF.Mixers

%block SCF.Mixer.Pulay
  # Mixing method
  method pulay
  variant stable

  # Mixing options
  weight 0.1000
  weight.linear 0.1000
  history 12
%endblock SCF.Mixer.Pulay
 
DFT-D3: loading default parameters for functional PBE.
DM_history_depth set to one: no extrapolation allowed by default for geometry relaxation
Size of DM history Fstack: 1
Total number of electrons:  3472.000000
Total ionic charge:  3472.000000

* ProcessorY, Blocksize:    8  64


* Orbital distribution balance (max,min):   128    64

 Kpoints in:            1 . Kpoints trimmed:            1

siesta: k-grid: Number of k-points = 1
siesta: k-points from Monkhorst-Pack grid
siesta: k-cutoff (effective) =    18.119 Ang
siesta: k-point supercell and displacements
siesta: k-grid:     1     0     0      0.000
siesta: k-grid:     0     1     0      0.000
siesta: k-grid:     0     0     1      0.000
 
diag: Algorithm                                     = D&C
diag: Parallel over k                               =   F
diag: Use parallel 2D distribution                  =   T
diag: Parallel block-size                           = 64
diag: Parallel distribution                         =     8 x     8
diag: Used triangular part                          = Lower
diag: Absolute tolerance                            =  0.100E-15
diag: Orthogonalization factor                      =  0.100E-05
diag: Memory factor                                 =  1.0000
 
siesta: Constraint v=[  0.00000,  0.00000,  1.00000] (868): center-dir
  [ 1 -- 868 ]
 
 
ts: **************************************************************
ts: Save H and S matrices                           =    F
ts: Save DM and EDM matrices                        =    F
ts: Only save the overlap matrix S                  =    F
ts: **************************************************************
 
************************ Begin: TS CHECKS AND WARNINGS ************************
************************ End: TS CHECKS AND WARNINGS **************************


                     ====================================
                        Begin CG opt. move =      0
                     ====================================

outcell: Unit cell vectors (Ang):
       36.217182   -1.230000    0.000000
       19.173802   30.750000    0.000000
        0.000000    0.000000   40.000000

outcell: Cell vector modules (Ang)   :   36.238063   36.238063   40.000000
outcell: Cell angles (23,13,12) (deg):     90.0000     90.0000     60.0000
outcell: Cell volume (Ang**3)        :  45490.4854
<dSpData1D:S at geom step 0
  <sparsity:sparsity for geom step 0
    nrows_g=7812 nrows=128 sparsity=.0020 nnzs=122540, refcount: 7>
  <dData1D:(new from dSpData1D) n=122540, refcount: 1>
refcount: 1>
new_DM -- step:     1
Initializing Density Matrix...
 
Attempting to read DM from file... Failed...
DM filled with atomic data:
<dSpData2D:DM initialized from atoms
  <sparsity:sparsity for geom step 0
    nrows_g=7812 nrows=128 sparsity=.0020 nnzs=122540, refcount: 8>
  <dData2D:DM n=122540 m=1, refcount: 1>
refcount: 1>
No. of atoms with KB's overlaping orbs in proc 0. Max # of overlaps:     241     232

InitMesh: MESH = 360 x 360 x 432 = 55987200
InitMesh: Mesh cutoff (required, used) =   300.000   322.366 Ry
New grid distribution [1]: sub = 2
New grid distribution [2]: sub = 2
New grid distribution [3]: sub = 2
Setting up quadratic distribution...

stepf: Fermi-Dirac step function

siesta: Program's energy decomposition (eV):
siesta: Ebs     =    -50702.950861
siesta: Eions   =    244916.362311
siesta: Ena     =     54084.299856
siesta: Ekin    =     95632.618274
siesta: Enl     =     -4300.829024
siesta: Eso     =         0.000000
siesta: Edftu   =         0.000000
siesta: DEna    =      7352.524882
siesta: DUscf   =       471.057088
siesta: DUext   =         0.000000
siesta: Ex      =    -45751.510614
siesta: Ec      =     -4412.260409
siesta: Exc     =    -50163.771024
siesta: EbV     =         0.000000
siesta: eta*DQ  =         0.000000
siesta: Emadel  =         0.000000
siesta: Emeta   =         0.000000
siesta: Emolmec =         0.000000
siesta: Ekinion =         0.000000
siesta: Eharris =   -145272.110333
siesta: Etot    =   -141840.462258
siesta: FreeEng =   -141840.462259

        iscf     Eharris(eV)        E_KS(eV)     FreeEng(eV)     dDmax    Ef(eV) dHmax(eV)
   scf:    1  -145272.110333  -141840.462258  -141840.462259  1.204289 -1.373714  4.757152
timer: Routine,Calls,Time,% = IterSCF        1      15.855  58.97
   scf:    2  -141878.869504  -141859.917700  -141859.917701  0.009212 -1.745226  3.997226
   scf:    3  -141949.691375  -141910.957880  -141910.957880  0.049067 -3.726893  0.320359
   scf:    4  -141912.856215  -141912.043709  -141912.043709  0.007966 -3.961601  0.122231
   scf:    5  -141912.127425  -141912.133063  -141912.133063  0.001117 -3.913826  0.074520
   scf:    6  -141912.105571  -141912.130740  -141912.130740  0.001431 -3.968610  0.068399
   scf:    7  -141912.079029  -141912.124119  -141912.124120  0.001237 -3.914402  0.090576
   scf:    8  -141912.159920  -141912.145938  -141912.145939  0.000697 -3.944700  0.022609
   scf:    9  -141912.147743  -141912.147107  -141912.147107  0.000270 -3.954736  0.001615
   scf:   10  -141912.147106  -141912.147120  -141912.147120  0.000087 -3.953466  0.002448
   scf:   11  -141912.147114  -141912.147125  -141912.147125  0.000065 -3.955642  0.002076
   scf:   12  -141912.147147  -141912.147138  -141912.147138  0.000033 -3.954685  0.000322

SCF Convergence by DM+H criterion
max |DM_out - DM_in|         :     0.0000330729
max |H_out - H_in|      (eV) :     0.0003217636
SCF cycle converged after 12 iterations

Using DM_out to compute the final energy and forces
No. of atoms with KB's overlaping orbs in proc 0. Max # of overlaps:     241     232
System symmetry is of type slab but no DFTD3.Periodic list was found. Attempting to guess symmetry for D3.
Could not guess the right amount of periodicity directions for D3.
Enabling periodicity on all directions.

siesta: E_KS(eV) =          -141998.4795

siesta: E_KS - E_eggbox =   -141998.4795

siesta: Atomic forces (eV/Ang):
----------------------------------------
   Tot    0.000105   -0.000571   -0.003289
----------------------------------------
   Max    1.215336
   Res    0.194120    sqrt( Sum f_i^2 / 3N )
----------------------------------------
   Max    1.215336    constrained

Stress tensor Voigt[x,y,z,yz,xz,xy] (kbar):      -25.78      -25.79       -4.56        0.00       -0.00        0.01
(Free)E + p*V (eV/cell)  -141467.2619
Target enthalpy (eV/cell)  -141998.4795

                     ====================================
                        Begin CG opt. move =      1
                     ====================================

outcell: Unit cell vectors (Ang):
       36.217182   -1.230000    0.000000
       19.173802   30.750000    0.000000
        0.000000    0.000000   40.000000

outcell: Cell vector modules (Ang)   :   36.238063   36.238063   40.000000
outcell: Cell angles (23,13,12) (deg):     90.0000     90.0000     60.0000
outcell: Cell volume (Ang**3)        :  45490.4854
<dSpData1D:S at geom step 1
  <sparsity:sparsity for geom step 1
    nrows_g=7812 nrows=128 sparsity=.0020 nnzs=122490, refcount: 7>
  <dData1D:(new from dSpData1D) n=122490, refcount: 1>
refcount: 1>
new_DM -- step:     2
Re-using DM from previous geometries...
Number of DMs in history: 1
 DM extrapolation coefficients: 
1   1.00000
New DM after history re-use:
<dSpData2D:SpM extrapolated using coords
  <sparsity:sparsity for geom step 1
    nrows_g=7812 nrows=128 sparsity=.0020 nnzs=122490, refcount: 9>
  <dData2D:(temp array for extrapolation) n=122490 m=1, refcount: 1>
refcount: 1>
No. of atoms with KB's overlaping orbs in proc 0. Max # of overlaps:     240     231

InitMesh: MESH = 360 x 360 x 432 = 55987200
InitMesh: Mesh cutoff (required, used) =   300.000   322.366 Ry
New grid distribution [1]: sub = 2
New grid distribution [2]: sub = 2
New grid distribution [3]: sub = 2
Setting up quadratic distribution...

        iscf     Eharris(eV)        E_KS(eV)     FreeEng(eV)     dDmax    Ef(eV) dHmax(eV)
   scf:    1  -142000.767393  -142000.241049  -142000.241049  0.019272 -3.955267  0.277317
   scf:    2  -141999.174265  -141999.911093  -141999.911093  0.010599 -3.954007  1.494644
   scf:    3  -142000.295981  -142000.254254  -142000.254254  0.008865 -3.954939  0.029017
   scf:    4  -142000.256710  -142000.255588  -142000.255588  0.000493 -3.954732  0.012728
   scf:    5  -142000.256954  -142000.256310  -142000.256311  0.000265 -3.954529  0.007394
   scf:    6  -142000.256918  -142000.256641  -142000.256641  0.000268 -3.954343  0.002187
   scf:    7  -142000.256694  -142000.256670  -142000.256671  0.000079 -3.954295  0.000781

SCF Convergence by DM+H criterion
max |DM_out - DM_in|         :     0.0000793474
max |H_out - H_in|      (eV) :     0.0007806262
SCF cycle converged after 7 iterations

Using DM_out to compute the final energy and forces
No. of atoms with KB's overlaping orbs in proc 0. Max # of overlaps:     240     231
System symmetry is of type slab but no DFTD3.Periodic list was found. Attempting to guess symmetry for D3.
Could not guess the right amount of periodicity directions for D3.
Enabling periodicity on all directions.

siesta: E_KS(eV) =          -142000.2432

siesta: Atomic forces (eV/Ang):
----------------------------------------
   Tot    0.001292    0.001095   -0.004688
----------------------------------------
   Max    0.435220
   Res    0.078754    sqrt( Sum f_i^2 / 3N )
----------------------------------------
   Max    0.435220    constrained

Stress tensor Voigt[x,y,z,yz,xz,xy] (kbar):      -25.86      -25.87       -4.68       -0.00       -0.00        0.01
(Free)E + p*V (eV/cell)  -141466.3279
Target enthalpy (eV/cell)  -142000.2432

                     ====================================
                        Begin CG opt. move =      2
                     ====================================

outcell: Unit cell vectors (Ang):
       36.217182   -1.230000    0.000000
       19.173802   30.750000    0.000000
        0.000000    0.000000   40.000000

outcell: Cell vector modules (Ang)   :   36.238063   36.238063   40.000000
outcell: Cell angles (23,13,12) (deg):     90.0000     90.0000     60.0000
outcell: Cell volume (Ang**3)        :  45490.4854
<dSpData1D:S at geom step 2
  <sparsity:sparsity for geom step 2
    nrows_g=7812 nrows=128 sparsity=.0020 nnzs=122492, refcount: 7>
  <dData1D:(new from dSpData1D) n=122492, refcount: 1>
refcount: 1>
new_DM -- step:     3
Re-using DM from previous geometries...
Number of DMs in history: 1
 DM extrapolation coefficients: 
1   1.00000
New DM after history re-use:
<dSpData2D:SpM extrapolated using coords
  <sparsity:sparsity for geom step 2
    nrows_g=7812 nrows=128 sparsity=.0020 nnzs=122492, refcount: 9>
  <dData2D:(temp array for extrapolation) n=122492 m=1, refcount: 1>
refcount: 1>
No. of atoms with KB's overlaping orbs in proc 0. Max # of overlaps:     239     231

InitMesh: MESH = 360 x 360 x 432 = 55987200
InitMesh: Mesh cutoff (required, used) =   300.000   322.366 Ry
New grid distribution [1]: sub = 2
New grid distribution [2]: sub = 2
New grid distribution [3]: sub = 2
Setting up quadratic distribution...

        iscf     Eharris(eV)        E_KS(eV)     FreeEng(eV)     dDmax    Ef(eV) dHmax(eV)
   scf:    1  -141999.969857  -141999.187664  -141999.187665  0.031374 -3.954197  1.333932
   scf:    2  -141965.279005  -141988.611578  -141988.611580  0.050313 -3.949973  7.133897
   scf:    3  -142000.909422  -141999.522031  -141999.522031  0.042345 -3.954200  0.149701
   scf:    4  -141999.536776  -141999.531193  -141999.531193  0.001816 -3.954280  0.037427
   scf:    5  -141999.534835  -141999.533252  -141999.533253  0.000666 -3.954341  0.016228
   scf:    6  -141999.534913  -141999.534124  -141999.534125  0.000262 -3.954390  0.010373
   scf:    7  -141999.535128  -141999.534659  -141999.534659  0.000286 -3.954446  0.004559
   scf:    8  -141999.534882  -141999.534782  -141999.534782  0.000174 -3.954489  0.001586
   scf:    9  -141999.534796  -141999.534789  -141999.534790  0.000027 -3.954489  0.000462

SCF Convergence by DM+H criterion
max |DM_out - DM_in|         :     0.0000267816
max |H_out - H_in|      (eV) :     0.0004624527
SCF cycle converged after 9 iterations

Using DM_out to compute the final energy and forces
No. of atoms with KB's overlaping orbs in proc 0. Max # of overlaps:     239     231
System symmetry is of type slab but no DFTD3.Periodic list was found. Attempting to guess symmetry for D3.
Could not guess the right amount of periodicity directions for D3.
Enabling periodicity on all directions.

siesta: E_KS(eV) =          -141999.5182

siesta: Atomic forces (eV/Ang):
----------------------------------------
   Tot    0.000059    0.001050   -0.001543
----------------------------------------
   Max    0.858507
   Res    0.169654    sqrt( Sum f_i^2 / 3N )
----------------------------------------
   Max    0.858507    constrained

Stress tensor Voigt[x,y,z,yz,xz,xy] (kbar):      -25.88      -25.88       -4.62        0.00        0.00        0.01
(Free)E + p*V (eV/cell)  -141465.8958
Target enthalpy (eV/cell)  -141999.5182

                     ====================================
                        Begin CG opt. move =      3
                     ====================================

outcell: Unit cell vectors (Ang):
       36.217182   -1.230000    0.000000
       19.173802   30.750000    0.000000
        0.000000    0.000000   40.000000

outcell: Cell vector modules (Ang)   :   36.238063   36.238063   40.000000
outcell: Cell angles (23,13,12) (deg):     90.0000     90.0000     60.0000
outcell: Cell volume (Ang**3)        :  45490.4854
<dSpData1D:S at geom step 3
  <sparsity:sparsity for geom step 3
    nrows_g=7812 nrows=128 sparsity=.0020 nnzs=122534, refcount: 7>
  <dData1D:(new from dSpData1D) n=122534, refcount: 1>
refcount: 1>
new_DM -- step:     4
Re-using DM from previous geometries...
Number of DMs in history: 1
 DM extrapolation coefficients: 
1   1.00000
New DM after history re-use:
<dSpData2D:SpM extrapolated using coords
  <sparsity:sparsity for geom step 3
    nrows_g=7812 nrows=128 sparsity=.0020 nnzs=122534, refcount: 9>
  <dData2D:(temp array for extrapolation) n=122534 m=1, refcount: 1>
refcount: 1>
No. of atoms with KB's overlaping orbs in proc 0. Max # of overlaps:     240     231

InitMesh: MESH = 360 x 360 x 432 = 55987200
InitMesh: Mesh cutoff (required, used) =   300.000   322.366 Ry
New grid distribution [1]: sub = 2
New grid distribution [2]: sub = 2
New grid distribution [3]: sub = 2
Setting up quadratic distribution...

        iscf     Eharris(eV)        E_KS(eV)     FreeEng(eV)     dDmax    Ef(eV) dHmax(eV)
   scf:    1  -142000.950829  -142000.440566  -142000.440566  0.020802 -3.954497  0.399346
   scf:    2  -141997.984439  -141999.681539  -141999.681540  0.020927 -3.954239  1.778018
   scf:    3  -142000.568093  -142000.471345  -142000.471345  0.017229 -3.954405  0.072573
   scf:    4  -142000.475618  -142000.473819  -142000.473819  0.001264 -3.954345  0.016914
   scf:    5  -142000.475207  -142000.474561  -142000.474562  0.000435 -3.954293  0.009758
   scf:    6  -142000.475365  -142000.474988  -142000.474989  0.000254 -3.954260  0.004359
   scf:    7  -142000.475180  -142000.475092  -142000.475092  0.000150 -3.954237  0.001773
   scf:    8  -142000.475113  -142000.475104  -142000.475104  0.000046 -3.954242  0.000695

SCF Convergence by DM+H criterion
max |DM_out - DM_in|         :     0.0000461278
max |H_out - H_in|      (eV) :     0.0006951628
SCF cycle converged after 8 iterations

Using DM_out to compute the final energy and forces
No. of atoms with KB's overlaping orbs in proc 0. Max # of overlaps:     240     231
System symmetry is of type slab but no DFTD3.Periodic list was found. Attempting to guess symmetry for D3.
Could not guess the right amount of periodicity directions for D3.
Enabling periodicity on all directions.

siesta: E_KS(eV) =          -142000.4854

siesta: Atomic forces (eV/Ang):
----------------------------------------
   Tot    0.000171   -0.001308   -0.004610
----------------------------------------
   Max    0.292638
   Res    0.062108    sqrt( Sum f_i^2 / 3N )
----------------------------------------
   Max    0.292638    constrained

Stress tensor Voigt[x,y,z,yz,xz,xy] (kbar):      -25.89      -25.89       -4.70        0.00       -0.00        0.01
(Free)E + p*V (eV/cell)  -141466.0261
Target enthalpy (eV/cell)  -142000.4854

cgvc: Finished line minimization    1.  Mean atomic displacement =    0.0260

                     ====================================
                        Begin CG opt. move =      4
                     ====================================

outcell: Unit cell vectors (Ang):
       36.217182   -1.230000    0.000000
       19.173802   30.750000    0.000000
        0.000000    0.000000   40.000000

outcell: Cell vector modules (Ang)   :   36.238063   36.238063   40.000000
outcell: Cell angles (23,13,12) (deg):     90.0000     90.0000     60.0000
outcell: Cell volume (Ang**3)        :  45490.4854
<dSpData1D:S at geom step 4
  <sparsity:sparsity for geom step 4
    nrows_g=7812 nrows=128 sparsity=.0020 nnzs=123903, refcount: 7>
  <dData1D:(new from dSpData1D) n=123903, refcount: 1>
refcount: 1>
new_DM -- step:     5
Re-using DM from previous geometries...
Number of DMs in history: 1
 DM extrapolation coefficients: 
1   1.00000
New DM after history re-use:
<dSpData2D:SpM extrapolated using coords
  <sparsity:sparsity for geom step 4
    nrows_g=7812 nrows=128 sparsity=.0020 nnzs=123903, refcount: 9>
  <dData2D:(temp array for extrapolation) n=123903 m=1, refcount: 1>
refcount: 1>
No. of atoms with KB's overlaping orbs in proc 0. Max # of overlaps:     246     234

InitMesh: MESH = 360 x 360 x 432 = 55987200
InitMesh: Mesh cutoff (required, used) =   300.000   322.366 Ry
New grid distribution [1]: sub = 2
New grid distribution [2]: sub = 2
New grid distribution [3]: sub = 2
Setting up quadratic distribution...

        iscf     Eharris(eV)        E_KS(eV)     FreeEng(eV)     dDmax    Ef(eV) dHmax(eV)
   scf:    1  -141996.479755  -141997.568517  -141997.568518  0.028597 -3.955571  1.239031
   scf:    2  -141984.448160  -141993.702302  -141993.702303  0.081756 -3.950761  5.120182
   scf:    3  -141998.257024  -141997.918188  -141997.918188  0.066485 -3.954771  0.274272
   scf:    4  -141998.032675  -141997.988702  -141997.988702  0.007764 -3.954519  0.055692
   scf:    5  -141998.002843  -141997.996947  -141997.996947  0.001756 -3.954473  0.030253
   scf:    6  -141998.001854  -141997.999625  -141997.999625  0.000449 -3.954471  0.016351
   scf:    7  -141998.001056  -141998.000391  -141998.000391  0.000292 -3.954490  0.008871
   scf:    8  -141998.000870  -141998.000662  -141998.000663  0.000282 -3.954486  0.003113
   scf:    9  -141998.000715  -141998.000693  -141998.000693  0.000131 -3.954473  0.001072
   scf:   10  -141998.000701  -141998.000697  -141998.000698  0.000034 -3.954466  0.000573

SCF Convergence by DM+H criterion
max |DM_out - DM_in|         :     0.0000338592
max |H_out - H_in|      (eV) :     0.0005729126
SCF cycle converged after 10 iterations

Using DM_out to compute the final energy and forces
No. of atoms with KB's overlaping orbs in proc 0. Max # of overlaps:     246     234
System symmetry is of type slab but no DFTD3.Periodic list was found. Attempting to guess symmetry for D3.
Could not guess the right amount of periodicity directions for D3.
Enabling periodicity on all directions.

siesta: E_KS(eV) =          -141997.9455

siesta: Atomic forces (eV/Ang):
[...]
   21.95897693   19.46304588   21.76004023   1     570  C
   26.21221340   19.17263959   21.74945025   1     571  C
   30.46602684   18.88373631   21.73157486   1     572  C
   34.71899353   18.59628154   21.71619273   1     573  C
   38.97006085   18.30938529   21.71518240   1     574  C
   43.21919291   18.02180757   21.72949099   1     575  C
   47.46741956   17.73280763   21.74326871   1     576  C
   15.66538597   21.12753176   21.77149380   1     577  C
   19.91613844   20.83568430   21.77129388   1     578  C
   24.16860687   20.54416725   21.76323173   1     579  C
   28.42208175   20.25432356   21.74484845   1     580  C
   32.67532628   19.96645723   21.72176662   1     581  C
   36.92740413   19.68004695   21.71316456   1     582  C
   41.17742927   19.39348506   21.72345477   1     583  C
   45.42607096   19.10546068   21.73807021   1     584  C
   17.87409435   22.20884606   21.78251918   1     585  C
   22.12568702   21.91658503   21.77483861   1     586  C
   26.37844842   21.62542825   21.76022291   1     587  C
   30.63174128   21.33663167   21.73453463   1     588  C
   34.88442440   21.05004424   21.71660141   1     589  C
   39.13536239   20.76424384   21.71831727   1     590  C
   43.38467516   20.47756737   21.73446117   1     591  C
   47.63333792   20.18857633   21.75319772   1     592  C
   15.83269430   23.58238819   21.78989529   1     593  C
   20.08353143   23.28961830   21.78775128   1     594  C
   24.33559734   22.99733203   21.77580759   1     595  C
   28.58849069   22.70724951   21.75281142   1     596  C
   32.84127214   22.41984072   21.72519103   1     597  C
   37.09301638   22.13431604   21.71727959   1     598  C
   41.34323216   21.84870279   21.73075031   1     599  C
   45.59230857   21.56117704   21.74845131   1     600  C
   49.84121039   21.27086796   21.77231817   1     601  C
   18.04204118   24.66322692   21.79962470   1     602  C
   22.29340737   24.37013921   21.79050981   1     603  C
   26.54574034   24.07857284   21.77122908   1     604  C
   30.79835216   23.78987740   21.74107874   1     605  C
   35.05051993   23.50395305   21.72005773   1     606  C
   39.30148523   23.21903801   21.72653487   1     607  C
   43.55114668   22.93292846   21.74567399   1     608  C
   47.80024553   22.64399283   21.76798745   1     609  C
   20.25195249   25.74362830   21.80407007   1     610  C
   24.50363256   25.45091424   21.78819198   1     611  C
   28.75585336   25.16058611   21.75962268   1     612  C
   33.00806670   24.87349356   21.73038351   1     613  C
   37.25950195   24.58876657   21.72275924   1     614  C
   41.50987751   24.30387179   21.74131274   1     615  C
   45.75941329   24.01648028   21.76271426   1     616  C
   50.00892765   23.72592709   21.78708693   1     617  C
   18.21091202   27.11754493   21.81692271   1     618  C
   22.46215965   26.82399692   21.80450288   1     619  C
   26.71391188   26.53211970   21.78011840   1     620  C
   30.96582288   26.24344928   21.74608230   1     621  C
   35.21754545   25.95796273   21.72242076   1     622  C
   39.46848263   25.67384295   21.73415556   1     623  C
   43.71852418   25.38804317   21.75540124   1     624  C
   47.96819755   25.09912607   21.78054125   1     625  C
   52.21827398   24.80706579   21.80541015   1     626  C
   20.42122651   28.19776521   21.81896268   1     627  C
   24.67252818   27.90463693   21.79819964   1     628  C
   28.92403965   27.61422267   21.76518782   1     629  C
   33.17556332   27.32734311   21.73180815   1     630  C
   37.42685334   27.04309722   21.72546252   1     631  C
   41.67734026   26.75863356   21.74731201   1     632  C
   45.92753429   26.47145310   21.77289788   1     633  C
   50.17760992   26.18072393   21.80120356   1     634  C
   22.63148555   29.27807091   21.81206052   1     635  C
   26.88272241   28.98599695   21.78511352   1     636  C
   31.13396645   28.69733927   21.74874387   1     637  C
   35.38518191   28.41225472   21.72414997   1     638  C
   39.63613577   28.12837225   21.73687672   1     639  C
   43.88664908   27.84288841   21.76229166   1     640  C
   48.13688510   27.55384879   21.79269918   1     641  C
   52.38744573   27.26153871   21.82014320   1     642  C
   20.59084261   30.65203325   21.82265000   1     643  C
   24.84181891   30.35880092   21.80145039   1     644  C
   29.09270588   30.06830005   21.76831190   1     645  C
   33.34365480   29.78158563   21.73271884   1     646  C
   37.59467667   29.49754188   21.72689250   1     647  C
   41.84550061   29.21328791   21.74980537   1     648  C
   46.09621837   28.92613795   21.78121815   1     649  C
   50.34684435   28.63529317   21.81430885   1     650  C
   54.59760661   28.34182864   21.82856271   1     651  C
    0.79341693    1.17814634   21.82338198   1     652  C
    5.04423343    0.88479728   21.80436585   1     653  C
    9.29486629    0.59391594   21.77386063   1     654  C
   13.54549287    0.30675621   21.73685591   1     655  C
   17.79637967    0.02251205   21.72448447   1     656  C
   22.04738727   -0.26155888   21.74455167   1     657  C
   26.29831947   -0.54828691   21.77705397   1     658  C
   30.54921166   -0.83876917   21.81239314   1     659  C
   34.80016286   -1.13199407   21.82960434   1     660  C
    3.00357254    2.25841095   21.81175509   1     661  C
    7.25410262    1.96614135   21.78775186   1     662  C
   11.50446198    1.67713220   21.75460916   1     663  C
   15.75492819    1.39158841   21.72525037   1     664  C
   20.00591437    1.10777786   21.73076743   1     665  C
   24.25713163    0.82266212   21.75882950   1     666  C
   28.50836133    0.53397792   21.79472168   1     667  C
   32.75948495    0.24191984   21.82363617   1     668  C
    5.21351421    3.33927428   21.79582793   1     669  C
    9.46362672    3.04850263   21.77034820   1     670  C
   13.71362839    2.76132211   21.73508255   1     671  C
   17.96428642    2.47685493   21.72300705   1     672  C
   22.21546571    2.19267504   21.74051137   1     673  C
   26.46700204    1.90581349   21.77190717   1     674  C
   30.71853979    1.61535339   21.80816741   1     675  C
   34.96989997    1.32225201   21.82341570   1     676  C
    3.17280425    4.71298382   21.79944678   1     677  C
    7.42288007    4.42090846   21.77859425   1     678  C
   11.67262611    4.13188595   21.74959058   1     679  C
   15.92260249    3.84618342   21.72311450   1     680  C
   20.17355589    3.56201339   21.72624266   1     681  C
   24.42528397    3.27655070   21.74970107   1     682  C
   28.67723817    2.98786477   21.78375801   1     683  C
   32.92888307    2.69604011   21.81253127   1     684  C
   37.18006069    2.40242191   21.81338146   1     685  C
    5.38211443    5.79405501   21.78124964   1     686  C
    9.63162286    5.50357367   21.75912391   1     687  C
   13.88120122    5.21619639   21.73050197   1     688  C
   18.13156979    4.93128703   21.72060759   1     689  C
   22.38306554    4.64656301   21.73189105   1     690  C
   26.63523989    4.35942207   21.75922352   1     691  C
   30.88744706    4.06908523   21.79092004   1     692  C
   35.13911653    3.77633697   21.80780789   1     693  C
    7.59078239    6.87597553   21.76252896   1     694  C
   11.83992574    6.58705987   21.73981181   1     695  C
   16.08962111    6.30092612   21.72007527   1     696  C
   20.34056274    6.01608147   21.72096604   1     697  C
   24.59271241    5.73011400   21.73740024   1     698  C
   28.84542464    5.44139288   21.76641719   1     699  C
   33.09768339    5.14982163   21.79312817   1     700  C
   37.34900912    4.85678160   21.79705782   1     701  C
    5.54984224    8.24907241   21.76456641   1     702  C
    9.79888571    7.95885421   21.74639896   1     703  C
   14.04791135    7.67124754   21.72446772   1     704  C
   18.29801451    7.38561553   21.71547278   1     705  C
   22.54987203    7.10015439   21.72126171   1     706  C
   26.80268270    6.81272383   21.74501801   1     707  C
   31.05548576    6.52255887   21.77068893   1     708  C
   35.30759514    6.23039178   21.78858018   1     709  C
   39.55839356    5.93759167   21.78145206   1     710  C
    7.75778866    9.33146204   21.75028180   1     711  C
   12.00634976    9.04247840   21.73321353   1     712  C
   16.25571387    8.75572387   21.71637384   1     713  C
   20.50676189    8.46999547   21.71527550   1     714  C
   24.75933044    8.18334961   21.72721175   1     715  C
   29.01263711    7.89449315   21.75147313   1     716  C
   33.26546776    7.60344722   21.77280491   1     717  C
   37.51699142    7.31115142   21.77712057   1     718  C
    9.96502222   10.41450074   21.74014492   1     719  C
   14.21369637   10.12649914   21.72268039   1     720  C
   18.46370537    9.84004839   21.71198262   1     721  C
   22.71574891    9.55353527   21.71680055   1     722  C
   26.96907357    9.26563964   21.73582767   1     723  C
   31.22251940    8.97581233   21.75439040   1     724  C
   35.47496194    8.68430062   21.76790986   1     725  C
   39.72572305    8.39240335   21.76230808   1     726  C
    7.92367912   11.78714271   21.74232764   1     727  C
   12.17190944   11.49818568   21.73195740   1     728  C
   16.42105518   11.21066432   21.71567656   1     729  C
   20.67210971   10.92372343   21.71179324   1     730  C
   24.92504175   10.63624798   21.72427275   1     731  C
   29.17886573   10.34733469   21.74156565   1     732  C
   33.43217314   10.05692907   21.75333045   1     733  C
   37.68384573    9.76559396   21.75512727   1     734  C
   41.93366054    9.47442524   21.75067674   1     735  C
   10.13034580   12.87051659   21.73629828   1     736  C
   14.37874498   12.58197867   21.72616193   1     737  C
   18.62865974   12.29424960   21.71517674   1     738  C
   22.88085451   12.00665384   21.71992694   1     739  C
   27.13459687   11.71830689   21.73320281   1     740  C
   31.38856113   11.42877777   21.74222939   1     741  C
   35.64119516   11.13828895   21.74600365   1     742  C
   39.89192636   10.84747580   21.74441553   1     743  C
   12.33679576   13.95409799   21.73320512   1     744  C
   16.58583583   13.66550375   21.72591721   1     745  C
   20.83695788   13.37731252   21.72009579   1     746  C
   25.09014174   13.08897638   21.72894219   1     747  C
   29.34419445   12.79995623   21.73612019   1     748  C
   33.59784540   12.51026453   21.73744873   1     749  C
   37.84963828   12.22009896   21.73588478   1     750  C
   42.09927693   11.93003784   21.73883548   1     751  C
   10.29513936   15.32662865   21.73574667   1     752  C
   14.54344286   15.03754950   21.73516562   1     753  C
   18.79347905   14.74861926   21.72782926   1     754  C
   23.04568530   14.45978025   21.72902237   1     755  C
   27.29956696   14.17078103   21.73438728   1     756  C
   31.55376502   13.88167836   21.73407795   1     757  C
   35.80658489   13.59227866   21.72854951   1     758  C
   40.05726511   13.30270508   21.73144823   1     759  C
   44.30594481   13.01319140   21.73573827   1     760  C
   12.50161627   16.41001477   21.73809642   1     761  C
   16.75062410   16.12049649   21.73884059   1     762  C
   21.00174370   15.83095434   21.73554669   1     763  C
   25.25494079   15.54161785   21.73571770   1     764  C
   29.50913477   15.25257483   21.73337419   1     765  C
   33.76285265   14.96374274   21.72746773   1     766  C
   38.01466918   14.67485483   21.72328646   1     767  C
   42.26422840   14.38583377   21.73134961   1     768  C
   14.70843850   17.49297425   21.74553900   1     769  C
   18.95848474   17.20275452   21.74453342   1     770  C
   23.21060463   16.91274700   21.74231175   1     771  C
   27.46443322   16.62330499   21.73692523   1     772  C
   31.71854033   16.33462967   21.72903957   1     773  C
   35.97142329   16.04633182   21.71759238   1     774  C
   40.22207551   15.75802555   21.72353008   1     775  C
   44.47073324   15.46936477   21.73377280   1     776  C
   12.66673558   18.86585053   21.74819090   1     777  C
   16.91594841   18.57532601   21.75380731   1     778  C
   21.16705052   18.28446491   21.75256690   1     779  C
   25.42007519   17.99430583   21.74538339   1     780  C
   29.67410849   17.70521880   21.73321230   1     781  C
   33.92760252   17.41722941   21.71984359   1     782  C
   38.17941524   17.12967674   21.71510116   1     783  C
   42.42901342   16.84171048   21.72756880   1     784  C
   46.67717656   16.55281979   21.73885603   1     785  C
   14.87411401   19.94833141   21.76065060   1     786  C
   19.12421997   19.65698392   21.76296948   1     787  C
   23.37630073   19.36587644   21.75754086   1     788  C
   27.62979442   19.07594310   21.74401339   1     789  C
   31.88353596   18.78769948   21.72553167   1     790  C
   36.13623323   18.50056540   21.71364958   1     791  C
   40.38685196   18.21352180   21.72013843   1     792  C
   44.63567320   17.92539357   21.73394240   1     793  C
   17.08219470   21.03002932   21.77320760   1     794  C
   21.33329764   20.73820768   21.76885678   1     795  C
   25.58597786   20.44722176   21.75792622   1     796  C
   29.83961106   20.15813971   21.73666091   1     797  C
   34.09272862   19.87091656   21.71759437   1     798  C
   38.34440478   19.58455926   21.71416782   1     799  C
   42.59407024   19.29755921   21.72867641   1     800  C
   46.84258222   19.00887274   21.74417842   1     801  C
   15.04077128   22.40347721   21.77886432   1     802  C
   19.29107724   22.11122265   21.78096232   1     803  C
   23.54289970   21.81916118   21.77145145   1     804  C
   27.79590947   21.52892101   21.75273332   1     805  C
   32.04911373   21.24096249   21.72614292   1     806  C
   36.30155581   20.95490048   21.71495416   1     807  C
   40.55217898   20.66894530   21.72300112   1     808  C
   44.80127377   20.38141987   21.73941219   1     809  C
   49.04988782   20.09160760   21.76095884   1     810  C
   17.24958016   23.48471398   21.79135206   1     811  C
   21.50057657   23.19195094   21.78435011   1     812  C
   25.75290073   22.90032635   21.76966600   1     813  C
   30.00585148   22.61118982   21.74288493   1     814  C
   34.25859087   22.32472271   21.72001521   1     815  C
   38.50998341   22.03941251   21.72006433   1     816  C
   42.75983821   21.75323362   21.73707571   1     817  C
   47.00887924   21.46456562   21.75629711   1     818  C
   19.45901220   24.56537492   21.79734062   1     819  C
   23.71056859   24.27263834   21.78520893   1     820  C
   27.96303872   23.98205769   21.76166177   1     821  C
   32.21568713   23.69453735   21.73208406   1     822  C
   36.46765206   23.40924576   21.71913853   1     823  C
   40.71834827   23.12417072   21.73304787   1     824  C
   44.96780337   22.83706710   21.75231254   1     825  C
   49.21696380   22.54692703   21.77586446   1     826  C
   17.41798647   25.93925108   21.80804181   1     827  C
   21.66903181   25.64583496   21.80016813   1     828  C
   25.92084201   25.35380492   21.78051813   1     829  C
   30.17312803   25.06475167   21.74902380   1     830  C
   34.42527731   24.77871088   21.72375413   1     831  C
   38.67652525   24.49432279   21.72799063   1     832  C
   42.92661780   24.20858767   21.74774367   1     833  C
   47.17613302   23.92007271   21.77071119   1     834  C
   51.42575551   23.62846702   21.79516126   1     835  C
   19.62790743   27.01961121   21.81456838   1     836  C
   23.87923061   26.72648428   21.79757062   1     837  C
   28.13105944   26.43566878   21.76856880   1     838  C
   32.38301595   26.14834201   21.73596505   1     839  C
   36.63456719   25.86369034   21.72251907   1     840  C
   40.88530955   25.57920934   21.74149284   1     841  C
   45.13530348   25.29230683   21.76388513   1     842  C
   49.38498327   25.00206986   21.78943055   1     843  C
   21.83822742   28.09986060   21.81291025   1     844  C
   26.08958821   27.80756995   21.78851874   1     845  C
   30.34112455   27.51844700   21.75355702   1     846  C
   34.59270109   27.23286604   21.72529154   1     847  C
   38.84384444   26.94892659   21.73222056   1     848  C
   43.09420605   26.66363319   21.75489309   1     849  C
   47.34429948   26.37507338   21.78206753   1     850  C
   51.59450177   26.08319233   21.80980372   1     851  C
   19.79747650   29.47385332   21.82527629   1     852  C
   24.04852586   29.18044966   21.80497835   1     853  C
   28.29971674   28.88955681   21.77333688   1     854  C
   32.55105570   28.60237647   21.73733069   1     855  C
   36.80224087   28.31805557   21.72462863   1     856  C
   41.05309505   28.03395637   21.74509915   1     857  C
   45.30353505   27.74725053   21.77243925   1     858  C
   49.55379011   27.45680386   21.80330788   1     859  C
   53.80432630   27.16360086   21.82423619   1     860  C
   22.00779436   30.55414605   21.81622262   1     861  C
   26.25879744   30.26173066   21.79105804   1     862  C
   30.50975584   29.97266201   21.75602367   1     863  C
   34.76069594   29.68722374   21.72607465   1     864  C
   39.01172974   29.40345679   21.73277765   1     865  C
   43.26243681   29.11840970   21.75961506   1     866  C
   47.51309561   28.82978731   21.79268237   1     867  C
   51.76379276   28.53761893   21.82217893   1     868  C

siesta: Program's energy decomposition (eV):
siesta: Ebs     =    -46064.068809
siesta: Eions   =    244916.362311
siesta: Ena     =     54081.483834
siesta: Ekin    =     98652.495416
siesta: Enl     =     -5004.866669
siesta: Eso     =         0.000000
siesta: Edftu   =         0.000000
siesta: DEna    =      5684.373265
siesta: DUscf   =       288.951078
siesta: DUext   =         0.000000
siesta: Ex      =    -46299.084381
siesta: Ec      =     -4403.010260
siesta: Exc     =    -50702.094641
siesta: EbV     =         0.000000
siesta: eta*DQ  =         0.000000
siesta: Emadel  =         0.000000
siesta: Emeta   =         0.000000
siesta: Emolmec =         0.000000
siesta: Ekinion =         0.000000
siesta: Eharris =   -142001.045652
siesta: Etot    =   -142001.048026
siesta: FreeEng =   -142001.048026

siesta: Final energy (eV):
siesta:  Band Struct. =  -46064.068809
siesta:       Kinetic =   98652.495416
siesta:       Hartree = 2301993.493090
siesta:         Edftu =       0.000000
siesta:       Eso     =       0.000000
siesta:    Ext. field =       0.000000
siesta:         Exch. =  -46299.084381
siesta:         Corr. =   -4403.010260
siesta:     Bulk bias =       0.000000
siesta:   Exch.-corr. =  -50702.094641
siesta:  Ion-electron =-4693271.107429
siesta:       Ion-ion = 2201411.193535
siesta:       Ekinion =       0.000000
siesta: D3 dispersion =     -85.027997
siesta:         Total = -142001.048026
siesta:         Fermi =      -3.956587

siesta: Stress tensor (static) (eV/Ang**3):
siesta:    -0.016255    0.000002   -0.000000
siesta:     0.000002   -0.016257    0.000000
siesta:    -0.000000    0.000000   -0.002588

siesta: Cell volume =      45490.485415 Ang**3

siesta: Pressure (static):
siesta:                Solid            Molecule  Units
siesta:           0.00012743          0.00012743  Ry/Bohr**3
siesta:           0.01169982          0.01170002  eV/Ang**3
siesta:          18.74517886         18.74549290  kBar
(Free)E+ p_basis*V_orbitals  =     -141477.951323
(Free)Eharris+ p_basis*V_orbitals  =     -141477.948949

siesta: Electric dipole (a.u.)  =    0.000000   -0.000000   -0.000145
siesta: Electric dipole (Debye) =    0.000000   -0.000000   -0.000369

cite: Please see "Graphene.bib" for an exhaustive BiBTeX file.
cite: Please clearly indicate Siesta version in published work: 5.0.0-alpha-112-g6e4f53aee-dirty
cite: This calculation has made use of the following articles
cite: which are encouraged to be cited in a published work.
        Primary SIESTA paper
          DOI: www.doi.org/10.1088/0953-8984/14/11/302
 
 
>> End of run:   1-DEC-2024  17:11:21
Job completed
