Siesta Version  : 5.0.0-alpha-112-g6e4f53aee-dirty
Architecture    : ----
Compiler version: Intel-2021.8.0.20221119
Compiler flags  : -O2 -ip -xHost -fp-model=strict -prec-div -prec-sqrt
PP flags        : ----
Libraries       : ----
Parallelisations: MPI
GEMM3M support
NetCDF support
NetCDF-4 support

Runtime information:
* Directory : /n/holylabs/LABS/kaxiras_lab/axzhu/projects/AM207-final-project/N_5/PSO_z
* Running on 64 nodes in parallel.
>> Start of run:   1-DEC-2024  14:23:33

                           *********************** 
                           *  WELCOME TO SIESTA  * 
                           *********************** 

reinit: Reading from standard input
reinit: Dumping input in INPUT_TMP.31849
************************** Dump of input data file ****************************
#################################
#				#
#	Basic Information	#
#	      			#
#################################
SystemName      Graphene
SystemLabel     Graphene
#########################################
#					#
#	Structural Information		#
#					#
#########################################
%include structure.fdf
#################################
#                               #
#       DFT Parameters          #
#                               #
#################################
SolutionMethod diagon           # Method of solving system. Can change to OrderN, transiesta, etc.
#Diag.Algorithm MRRR
#NumberOfEigenStates -20 # this will include first 10 conduction bands
XC.Functional   GGA
XC.Authors      PBE
DFTD3 true
Spin non-polarized
# This is causing memory issues, keep it low for now.
Mesh.Cutoff 300 Ry              # Cut off plane waves with kinetic energy higher than this.
MaxSCFIterations 300            # Max number of iterations in the SCF loop.
DM.UseSaveDM true
MinSCFIterations       3
SCF.DM.Tolerance       0.0001
SCF.Mixer.Weight       0.10
SCF.Mixer.History      12
SCF.Mix.First          true
#################################
#                               #
#             Basis             #
#                               #
#################################
#PAO.BasisSize   DZP
PAO.Basis < basis.fdf
#########################################
#					#
#	k-points, Bands, DOS		#
#		  	 		#
#########################################
%block kgrid_Monkhorst_Pack
   1  0  0  0.0
   0  1  0  0.0
   0  0  1  0.0
%endblock kgrid_Monkhorst_Pack
#BandLinesScale ReciprocalLatticeVectors
#%block BandLines
#1   0.6666666667  0.3333333333  0.0000000000  K
#10  0.0000000000  0.0000000000  0.0000000000  Gamma
#10  0.5000000000  0.0000000000  0.0000000000  M
#10  0.6666666667  0.3333333333  0.0000000000  K
#%endblock BandLines
# Local density of states (LDOS)
# %block LocalDensityOfStates
# EF 8.40 8.50 eV
# %endblock LocalDensityOfStates
#########################################
#                                       #
#             Wavefunctions             #
#                                       #
#########################################
#WaveFuncKPointsScale ReciprocalLatticeVectors
#%block WaveFuncKPoints
#0.666 0.333 0.000 from 4375 to 4378 # K wavefuncs 4375 to 4378
#0.000 0.000 0.000 from 4375 to 4378 # Gamma wavefuncs 4375 to 4378
#0.500 0.000 0.000 from 4375 to 4378 # M wavefuncs 4375 to 4378
#%endblock WaveFuncKPoints
#WriteDenchar T
#########################################
#                                       #
#       Geometry Optimisation           #
#                                       #
#########################################
MD.UseSaveXV true
MD.TypeOfRun           CG                  # Conjugate Gradient
MD.NumCGsteps          200                 # Max number of steps
MD.MaxForceTol         0.01    eV/Ang      # 10 meV/Ang
MD.VariableCell        false               # Don't relax cell
MD.MaxCGDispl          0.5 Bohr            # Maximum displacement of any atom
# Fix COM in Z direction only
%block Geometry.Constraints
 center all 0.0 0.0 1.0
%endblock Geometry.Constraints
************************** End of input data file *****************************

reinit: -----------------------------------------------------------------------
reinit: System Name: Graphene
reinit: -----------------------------------------------------------------------
reinit: System Label: Graphene
reinit: -----------------------------------------------------------------------

initatom: Reading input for the pseudopotentials and atomic orbitals ----------
Species number:   1 Atomic number:    6 Label: C
 

---- Processing specs for species: C
Ground state valence configuration:   2s02  2p02
Reading pseudopotential information in PSML from:
  C.psml
PSML file version: 1.1
Using libxc ids:  101 130
GGA--PBE XC_GGA_X_PBE--XC_GGA_C_PBE pb
 Using ATOM defaults for log grid...
PSML uuid: 297821e0-be41-11e7-6802-e1ff7dfff095

---- Pseudopotential check for C 

Pseudized shells:
2s( 2.00) rc: 1.20
2p( 2.00) rc: 1.26
Valence configuration for ps generation: 2s:2p: Total charge:   4.000000
For C, standard SIESTA heuristics set lmxkb to 3
 (one more than the basis l, including polarization orbitals).
Use PS.lmax or PS.KBprojectors blocks to override.
C pseudopotential only contains V_ls up to l=1 -- lmxkb reset.

<basis_specs>
===============================================================================
C                    Z=   6    Mass=  12.011        Charge= 0.99941    
Lmxo=2 Lmxkb= 1    BasisType=split      Semic=F
L=0  Nsemic=0  Cnfigmx=2
          i=1  nzeta=1  polorb=0  (2s)
            splnorm:   0.15000    
               vcte:    132.57    
               rinn:    4.5256    
               qcoe:    0.0000    
               qyuk:    0.0000    
               qwid:   0.10000E-01
                rcs:    6.0009    
            lambdas:    1.0000    
L=1  Nsemic=0  Cnfigmx=2
          i=1  nzeta=1  polorb=0  (2p)
            splnorm:   0.15000    
               vcte:    6.0639    
               rinn:    6.0646    
               qcoe:    0.0000    
               qyuk:    0.0000    
               qwid:   0.10000E-01
                rcs:    6.7108    
            lambdas:    1.0000    
L=2  Nsemic=0  Cnfigmx=3
          i=1  nzeta=1  polorb=0  (3d)
            splnorm:   0.15000    
               vcte:    14.478    
               rinn:    4.3208    
               qcoe:    0.0000    
               qyuk:    0.0000    
               qwid:   0.10000E-01
                rcs:    6.2254    
            lambdas:    1.0000    
-------------------------------------------------------------------------------
L=0  Nkbl=1  erefs: 0.17977+309
L=1  Nkbl=1  erefs: 0.17977+309
===============================================================================
</basis_specs>

atom: Called for C                     (Z =   6)
NOTE: C pseudopotential has channels up to l= 1
NOTE: PAOs with higher l will be generated with V_local

read_vps: Pseudopotential generation method:
read_vps: ONCVPSP-3.Hamann's oncvpsp                        
Valence charge in pseudo generation:    4.00000

read_vps: Pseudopotential includes a core correction:
read_vps: Pseudo-core for xc-correction

xc_check: Exchange-correlation functional:
xc_check: GGA Perdew, Burke & Ernzerhof 1996
Got Vlocal (oncv-fit) from psml data
Choosing vlocal chloc cutoff:  4.139772
qtot up to nchloc:    3.99998844
atom: Maximum radius for chlocal:    4.13977
atom: Maximum radius for r*vlocal+2*Zval:    4.13977
Reading KB projs from C psml data
Using scalar-relativistic projectors in PSML file

PSML: Kleinman-Bylander projectors: 
   l= 0   rc=  1.231096   Ekb= 12.963096
   l= 0   rc=  1.231096   Ekb=  0.771007
   l= 1   rc=  1.294237   Ekb= -8.399923
   l= 1   rc=  1.294237   Ekb= -1.755033

PSML: Total number of  Kleinman-Bylander projectors:   8
atom: -------------------------------------------------------------------------

atom: SANKEY-TYPE ORBITALS:

atom: basis set generated (by rescaling the valence charge)
atom: for a cation of charge   0.9994

SPLIT: Orbitals with angular momentum L= 0

SPLIT: Basis orbitals for state 2s

   izeta = 1
                 lambda =    1.000000
                     rc =    6.099293
                 energy =   -2.079355
                kinetic =    1.090115
    potential(screened) =   -3.169470
       potential(ionic) =   -5.727963

SPLIT: Orbitals with angular momentum L= 1

SPLIT: Basis orbitals for state 2p

   izeta = 1
                 lambda =    1.000000
                     rc =    6.740804
                 energy =   -1.441657
                kinetic =    3.222058
    potential(screened) =   -4.663715
       potential(ionic) =   -7.206130
*Note: V_local used for l= 2

** Using vlocal for PAOs with L= 2

SPLIT: Orbitals with angular momentum L= 2

SPLIT: Basis orbitals for state 3d

   izeta = 1
                 lambda =    1.000000
                     rc =    6.253707
                 energy =    0.017329
                kinetic =    1.197074
    potential(screened) =   -1.179745
       potential(ionic) =   -2.838380
atom: Total number of Sankey-type orbitals:  9

atm_pop: Valence configuration (for local Pseudopot. screening):
 2s( 2.00)                                                            
 2p( 2.00)                                                            
 3d( 0.00)                                                            
Vna: chval, zval:    4.00000   4.00000

Vna:  Cut-off radius for the neutral-atom potential:   6.740804
comcore: Pseudo-core radius Rcore=  1.682861

atom: _________________________________________________________________________

prinput: Basis input 

PAO.BasisType split     

%block ChemicalSpeciesLabel
    1    6 C                       # Species index, atomic number, species label
%endblock ChemicalSpeciesLabel

%block PAO.Basis                 # Define Basis set
# WARNING: This information might be incomplete!
C                     3   0.999            # Label, l-shells, ionic net charge
 n=2   0   1                         # n, l, Nzeta 
   6.099   
   1.000   
 n=2   1   1                         # n, l, Nzeta 
   6.741   
   1.000   
 n=3   2   1                         # n, l, Nzeta 
   6.254   
   1.000   
%endblock PAO.Basis

prinput: ----------------------------------------------------------------------

Dumping basis to NetCDF file C.ion.nc
coor:   Atomic-coordinates input format  =     Cartesian coordinates
coor:                                          (in Angstroms)

siesta: WARNING: XV file not found

siesta: Atomic coordinates (Bohr) and species
siesta:      2.68394   0.00000  34.54404  1        1
siesta:     10.73577   0.00000  34.61181  1        2
siesta:     18.78760   0.00000  34.49730  1        3
siesta:     26.83943   0.00000  34.56480  1        4
siesta:     34.89126   0.00000  34.50344  1        5
siesta:      6.70986   2.32436  34.58675  1        6
siesta:     14.76169   2.32436  34.53437  1        7
siesta:     22.81352   2.32436  34.59033  1        8
siesta:     30.86535   2.32436  34.61787  1        9
siesta:     38.91718   2.32436  34.59288  1       10
siesta:     10.73577   4.64873  34.57453  1       11
siesta:     18.78760   4.64873  34.55042  1       12
siesta:     26.83943   4.64873  34.54313  1       13
siesta:     34.89126   4.64873  34.52990  1       14
siesta:      6.70986   6.97309  34.49189  1       15
siesta:     14.76169   6.97309  34.61410  1       16
siesta:     22.81352   6.97309  34.59321  1       17
siesta:     30.86535   6.97309  34.61145  1       18
siesta:     38.91718   6.97309  34.60219  1       19
siesta:     10.73577   9.29745  34.55728  1       20
siesta:     18.78760   9.29745  34.57663  1       21
siesta:     26.83943   9.29745  34.54467  1       22
siesta:     34.89126   9.29745  34.47828  1       23
siesta:     42.94309   9.29745  34.56163  1       24
siesta:     14.76169  11.62182  34.61772  1       25
siesta:     22.81352  11.62182  34.53079  1       26
siesta:     30.86535  11.62182  34.56900  1       27
siesta:     38.91718  11.62182  34.56900  1       28
siesta:     10.73577  13.94618  34.58748  1       29
siesta:     18.78760  13.94618  34.54198  1       30
siesta:     26.83943  13.94618  34.47608  1       31
siesta:     34.89126  13.94618  34.61598  1       32
siesta:     42.94309  13.94618  34.60612  1       33
siesta:     14.76169  16.27054  34.52813  1       34
siesta:     22.81352  16.27054  34.49903  1       35
siesta:     30.86535  16.27054  34.61083  1       36
siesta:     38.91718  16.27054  34.60830  1       37
siesta:     46.96901  16.27054  34.53820  1       38
siesta:     18.78760  18.59491  34.61443  1       39
siesta:     26.83943  18.59491  34.45813  1       40
siesta:     34.89126  18.59491  34.57768  1       41
siesta:     42.94309  18.59491  34.62017  1       42
siesta:     14.76169  20.91927  34.56845  1       43
siesta:     22.81352  20.91927  34.60208  1       44
siesta:     30.86535  20.91927  34.55872  1       45
siesta:     38.91718  20.91927  34.57056  1       46
siesta:     46.96901  20.91927  34.60481  1       47
siesta:     18.78760  23.24363  34.42849  1       48
siesta:     26.83943  23.24363  34.56140  1       49
siesta:     34.89126  23.24363  34.57450  1       50
siesta:     42.94309  23.24363  34.59642  1       51
siesta:     50.99492  23.24363  34.54320  1       52
siesta:     22.81352  25.56799  34.59106  1       53
siesta:     30.86535  25.56799  34.58702  1       54
siesta:     38.91718  25.56799  34.61379  1       55
siesta:     46.96901  25.56799  34.60524  1       56
siesta:     18.78760  27.89236  34.49730  1       57
siesta:     26.83943  27.89236  34.56787  1       58
siesta:     34.89126  27.89236  34.59226  1       59
siesta:     42.94309  27.89236  34.56097  1       60
siesta:     50.99492  27.89236  34.57369  1       61
siesta:      5.36789   0.00000  34.57722  1       62
siesta:     13.41972   0.00000  34.49127  1       63
siesta:     21.47155   0.00000  34.54367  1       64
siesta:     29.52338   0.00000  34.50951  1       65
siesta:     37.57521   0.00000  34.59893  1       66
siesta:      9.39380   2.32436  34.55213  1       67
siesta:     17.44563   2.32436  34.58956  1       68
siesta:     25.49746   2.32436  34.49464  1       69
siesta:     33.54929   2.32436  34.57125  1       70
siesta:      5.36789   4.64873  34.51306  1       71
siesta:     13.41972   4.64873  34.54754  1       72
siesta:     21.47155   4.64873  34.51133  1       73
siesta:     29.52338   4.64873  34.54275  1       74
siesta:     37.57521   4.64873  34.54802  1       75
siesta:      9.39380   6.97309  34.48947  1       76
siesta:     17.44563   6.97309  34.57144  1       77
siesta:     25.49746   6.97309  34.53334  1       78
siesta:     33.54929   6.97309  34.49883  1       79
siesta:     41.60112   6.97309  34.57354  1       80
siesta:     13.41972   9.29745  34.55089  1       81
siesta:     21.47155   9.29745  34.52636  1       82
siesta:     29.52338   9.29745  34.58798  1       83
siesta:     37.57521   9.29745  34.57915  1       84
siesta:      9.39380  11.62182  34.50540  1       85
siesta:     17.44563  11.62182  34.58677  1       86
siesta:     25.49746  11.62182  34.53063  1       87
siesta:     33.54929  11.62182  34.61619  1       88
siesta:     41.60112  11.62182  34.53518  1       89
siesta:     13.41972  13.94618  34.51879  1       90
siesta:     21.47155  13.94618  34.57969  1       91
siesta:     29.52338  13.94618  34.56010  1       92
siesta:     37.57521  13.94618  34.55606  1       93
siesta:     45.62704  13.94618  34.52398  1       94
siesta:     17.44563  16.27054  34.53497  1       95
siesta:     25.49746  16.27054  34.62123  1       96
siesta:     33.54929  16.27054  34.49296  1       97
siesta:     41.60112  16.27054  34.61794  1       98
siesta:     13.41972  18.59491  34.52980  1       99
siesta:     21.47155  18.59491  34.62102  1      100
siesta:     29.52338  18.59491  34.54149  1      101
siesta:     37.57521  18.59491  34.52174  1      102
siesta:     45.62704  18.59491  34.60454  1      103
siesta:     17.44563  20.91927  34.54266  1      104
siesta:     25.49746  20.91927  34.55268  1      105
siesta:     33.54929  20.91927  34.55358  1      106
siesta:     41.60112  20.91927  34.44550  1      107
siesta:     49.65295  20.91927  34.49733  1      108
siesta:     21.47155  23.24363  34.45638  1      109
siesta:     29.52338  23.24363  34.54690  1      110
siesta:     37.57521  23.24363  34.51221  1      111
siesta:     45.62704  23.24363  34.59422  1      112
siesta:     17.44563  25.56799  34.55317  1      113
siesta:     25.49746  25.56799  34.48765  1      114
siesta:     33.54929  25.56799  34.56498  1      115
siesta:     41.60112  25.56799  34.60749  1      116
siesta:     49.65295  25.56799  34.60734  1      117
siesta:     21.47155  27.89236  34.53964  1      118
siesta:     29.52338  27.89236  34.58447  1      119
siesta:     37.57521  27.89236  34.58218  1      120
siesta:     45.62704  27.89236  34.56398  1      121
siesta:     53.67887  27.89236  34.54206  1      122
siesta:      6.95185   1.44796  40.97686  1      123
siesta:     14.93768   0.41915  41.01696  1      124
siesta:     22.92352  -0.60967  40.97640  1      125
siesta:     30.90935  -1.63849  41.08936  1      126
siesta:      3.25593   4.26768  41.04206  1      127
siesta:     11.24176   3.23887  41.02347  1      128
siesta:     19.22759   2.21005  41.03361  1      129
siesta:     27.21343   1.18123  41.02689  1      130
siesta:     35.19926   0.15242  41.06810  1      131
siesta:      7.54584   6.05859  41.00653  1      132
siesta:     15.53167   5.02977  41.04793  1      133
siesta:     23.51750   4.00095  41.03990  1      134
siesta:     31.50334   2.97214  40.97937  1      135
siesta:     11.83575   7.84949  41.03174  1      136
siesta:     19.82158   6.82067  40.99899  1      137
siesta:     27.80741   5.79186  40.98038  1      138
siesta:     35.79324   4.76304  41.05935  1      139
siesta:      8.13983  10.66921  40.97893  1      140
siesta:     16.12566   9.64039  41.04519  1      141
siesta:     24.11149   8.61157  41.01133  1      142
siesta:     32.09732   7.58276  41.01901  1      143
siesta:     40.08315   6.55394  41.04351  1      144
siesta:     12.42974  12.46011  41.04982  1      145
siesta:     20.41557  11.43129  40.98054  1      146
siesta:     28.40140  10.40248  41.08832  1      147
siesta:     36.38723   9.37366  41.06220  1      148
siesta:     16.71965  14.25101  40.98340  1      149
siesta:     24.70548  13.22220  41.02568  1      150
siesta:     32.69131  12.19338  41.00365  1      151
siesta:     40.67714  11.16456  41.03753  1      152
siesta:     13.02373  17.07073  41.03498  1      153
siesta:     21.00956  16.04192  41.09081  1      154
siesta:     28.99539  15.01310  41.03167  1      155
siesta:     36.98122  13.98428  41.00526  1      156
siesta:     44.96705  12.95547  41.03166  1      157
siesta:     17.31363  18.86164  41.01931  1      158
siesta:     25.29947  17.83282  40.96810  1      159
siesta:     33.28530  16.80400  41.04315  1      160
siesta:     41.27113  15.77519  41.09143  1      161
siesta:     21.60354  20.65254  41.01402  1      162
siesta:     29.58938  19.62372  41.06468  1      163
siesta:     37.57521  18.59491  41.05488  1      164
siesta:     45.56104  17.56609  41.10534  1      165
siesta:     17.90762  23.47226  40.99466  1      166
siesta:     25.89345  22.44344  41.02735  1      167
siesta:     33.87929  21.41462  41.00004  1      168
siesta:     41.86512  20.38581  40.99682  1      169
siesta:     49.85095  19.35699  41.13831  1      170
siesta:     22.19753  25.26316  40.98560  1      171
siesta:     30.18336  24.23434  41.02838  1      172
siesta:     38.16919  23.20553  41.04797  1      173
siesta:     46.15503  22.17671  40.99128  1      174
siesta:     26.48744  27.05406  41.03455  1      175
siesta:     34.47327  26.02525  41.08136  1      176
siesta:     42.45910  24.99643  40.99696  1      177
siesta:     50.44494  23.96761  41.06113  1      178
siesta:     22.79152  29.87378  41.03170  1      179
siesta:     30.77735  28.84497  41.04449  1      180
siesta:     38.76318  27.81615  41.00879  1      181
siesta:     46.74901  26.78733  41.06007  1      182
siesta:     54.73484  25.75852  41.07151  1      183
siesta:      1.62797   2.13384  41.00767  1      184
siesta:      9.61380   1.10503  41.03815  1      185
siesta:     17.59963   0.07621  41.04807  1      186
siesta:     25.58546  -0.95261  41.03484  1      187
siesta:     33.57129  -1.98142  41.04708  1      188
siesta:      5.91788   3.92474  41.03301  1      189
siesta:     13.90371   2.89593  40.98496  1      190
siesta:     21.88954   1.86711  41.03704  1      191
siesta:     29.87537   0.83829  41.01702  1      192
siesta:     10.20778   5.71565  41.05233  1      193
siesta:     18.19362   4.68683  41.01772  1      194
siesta:     26.17945   3.65801  40.99560  1      195
siesta:     34.16528   2.62920  41.01030  1      196
siesta:      6.51186   8.53537  41.02101  1      197
siesta:     14.49769   7.50655  41.11480  1      198
siesta:     22.48353   6.47773  40.99291  1      199
siesta:     30.46936   5.44892  40.98787  1      200
siesta:     38.45519   4.42010  41.02158  1      201
siesta:     10.80177  10.32627  41.01374  1      202
siesta:     18.78760   9.29745  41.03055  1      203
siesta:     26.77344   8.26864  41.02771  1      204
siesta:     34.75927   7.23982  41.05874  1      205
siesta:     15.09168  12.11717  41.00220  1      206
siesta:     23.07751  11.08836  41.06608  1      207
siesta:     31.06334  10.05954  41.04987  1      208
siesta:     39.04918   9.03072  40.96245  1      209
siesta:     11.39576  14.93689  41.00840  1      210
siesta:     19.38159  13.90807  41.00779  1      211
siesta:     27.36742  12.87926  41.11513  1      212
siesta:     35.35325  11.85044  41.04556  1      213
siesta:     43.33909  10.82163  41.07187  1      214
siesta:     15.68567  16.72779  41.03341  1      215
siesta:     23.67150  15.69898  41.06418  1      216
siesta:     31.65733  14.67016  41.00814  1      217
siesta:     39.64316  13.64134  41.03982  1      218
siesta:     19.97558  18.51870  40.99184  1      219
siesta:     27.96141  17.48988  41.02740  1      220
siesta:     35.94724  16.46106  41.01289  1      221
siesta:     43.93307  15.43225  41.02697  1      222
siesta:     16.27966  21.33842  41.04955  1      223
siesta:     24.26549  20.30960  41.04622  1      224
siesta:     32.25132  19.28078  41.11618  1      225
siesta:     40.23715  18.25197  41.08187  1      226
siesta:     48.22298  17.22315  41.03241  1      227
siesta:     20.56957  23.12932  41.06673  1      228
siesta:     28.55540  22.10050  41.02110  1      229
siesta:     36.54123  21.07169  41.07635  1      230
siesta:     44.52706  20.04287  41.03334  1      231
siesta:     24.85948  24.92022  41.10896  1      232
siesta:     32.84531  23.89140  41.04580  1      233
siesta:     40.83114  22.86259  41.01885  1      234
siesta:     48.81697  21.83377  41.02100  1      235
siesta:     21.16355  27.73994  41.08494  1      236
siesta:     29.14938  26.71112  40.97724  1      237
siesta:     37.13522  25.68231  41.05938  1      238
siesta:     45.12105  24.65349  41.01904  1      239
siesta:     53.10688  23.62467  40.98532  1      240
siesta:     25.45346  29.53084  40.97643  1      241
siesta:     33.43929  28.50203  41.05587  1      242
siesta:     41.42513  27.47321  41.02723  1      243
siesta:     49.41096  26.44439  40.97601  1      244

siesta: System type = slab      

initatomlists: Number of atoms, orbitals, and projectors:    244  2196  1952

siesta: ******************** Simulation parameters ****************************
siesta:
siesta: The following are some of the parameters of the simulation.
siesta: A complete list of the parameters used, including default values,
siesta: can be found in file out.fdf
siesta:
redata: Spin configuration                          = none
redata: Number of spin components                   = 1
redata: Time-Reversal Symmetry                      = T
redata: Spin spiral                                 = F
redata: Long output                                 =   F
redata: Number of Atomic Species                    =        1
redata: Charge density info will appear in .RHO file
redata: Write Mulliken Pop.                         = NO
redata: Matel table size (NRTAB)                    =     1024
redata: Mesh Cutoff                                 =   300.0000 Ry
redata: Net charge of the system                    =     0.0000 |e|
redata: Min. number of SCF Iter                     =        3
redata: Max. number of SCF Iter                     =      300
redata: SCF convergence failure will abort job
redata: SCF mix quantity                            = Hamiltonian
redata: Mix DM or H after convergence               =   F
redata: Recompute H after scf cycle                 =   F
redata: Mix DM in first SCF step                    =   T
redata: Write Pulay info on disk                    =   F
redata: New DM Occupancy tolerance                  = 0.000000000001
redata: No kicks to SCF
redata: DM Mixing Weight for Kicks                  =     0.5000
redata: Require Harris convergence for SCF          =   F
redata: Harris energy tolerance for SCF             =     0.000100 eV
redata: Require DM convergence for SCF              =   T
redata: DM tolerance for SCF                        =     0.000100
redata: Require EDM convergence for SCF             =   F
redata: EDM tolerance for SCF                       =     0.001000 eV
redata: Require H convergence for SCF               =   T
redata: Hamiltonian tolerance for SCF               =     0.001000 eV
redata: Require (free) Energy convergence for SCF   =   F
redata: (free) Energy tolerance for SCF             =     0.000100 eV
redata: Using DFT-D3 dispersion                     =   T
redata: Using Saved Data (generic)                  =   F
redata: Use continuation files for DM               =   T
redata: Neglect nonoverlap interactions             =   F
redata: Method of Calculation                       = Diagonalization
redata: Electronic Temperature                      =   299.9863 K
redata: Fix the spin of the system                  =   F
redata: Max. number of TDED Iter                    =        1
redata: Number of TDED substeps                     =        3
redata: Dynamics option                             = CG coord. optimization
redata: Variable cell                               =   F
redata: Use continuation files for CG               =   F
redata: Max atomic displ per move                   =     0.2646 Ang
redata: Maximum number of optimization moves        =      200
redata: Force tolerance                             =     0.0100 eV/Ang
mix.SCF: Pulay mixing                            = Pulay
mix.SCF:    Variant                              = stable
mix.SCF:    History steps                        = 12
mix.SCF:    Linear mixing weight                 =     0.100000
mix.SCF:    Mixing weight                        =     0.100000
mix.SCF:    SVD condition                        = 0.1000E-07
redata: Save all siesta data in one NC              =   F
redata: ***********************************************************************

%block SCF.Mixers
  Pulay
%endblock SCF.Mixers

%block SCF.Mixer.Pulay
  # Mixing method
  method pulay
  variant stable

  # Mixing options
  weight 0.1000
  weight.linear 0.1000
  history 12
%endblock SCF.Mixer.Pulay
 
DFT-D3: loading default parameters for functional PBE.
DM_history_depth set to one: no extrapolation allowed by default for geometry relaxation
Size of DM history Fstack: 1
Total number of electrons:   976.000000
Total ionic charge:   976.000000

* ProcessorY, Blocksize:    8  34


* Orbital distribution balance (max,min):    54    34

 Kpoints in:            1 . Kpoints trimmed:            1

siesta: k-grid: Number of k-points = 1
siesta: k-points from Monkhorst-Pack grid
siesta: k-cutoff (effective) =     9.607 Ang
siesta: k-point supercell and displacements
siesta: k-grid:     1     0     0      0.000
siesta: k-grid:     0     1     0      0.000
siesta: k-grid:     0     0     1      0.000
 
diag: Algorithm                                     = D&C
diag: Parallel over k                               =   F
diag: Use parallel 2D distribution                  =   T
diag: Parallel block-size                           = 34
diag: Parallel distribution                         =     8 x     8
diag: Used triangular part                          = Lower
diag: Absolute tolerance                            =  0.100E-15
diag: Orthogonalization factor                      =  0.100E-05
diag: Memory factor                                 =  1.0000
 
siesta: Constraint v=[  0.00000,  0.00000,  1.00000] (244): center-dir
  [ 1 -- 244 ]
 
 
ts: **************************************************************
ts: Save H and S matrices                           =    F
ts: Save DM and EDM matrices                        =    F
ts: Only save the overlap matrix S                  =    F
ts: **************************************************************
 
************************ Begin: TS CHECKS AND WARNINGS ************************
************************ End: TS CHECKS AND WARNINGS **************************


                     ====================================
                        Begin CG opt. move =      0
                     ====================================

outcell: Unit cell vectors (Ang):
       19.173802   -1.230000    0.000000
       10.652112   15.990000    0.000000
        0.000000    0.000000   40.000000

outcell: Cell vector modules (Ang)   :   19.213214   19.213214   40.000000
outcell: Cell angles (23,13,12) (deg):     90.0000     90.0000     60.0000
outcell: Cell volume (Ang**3)        :  12787.6480
<dSpData1D:S at geom step 0
  <sparsity:sparsity for geom step 0
    nrows_g=2196 nrows=54 sparsity=.0107 nnzs=51799, refcount: 7>
  <dData1D:(new from dSpData1D) n=51799, refcount: 1>
refcount: 1>
new_DM -- step:     1
Initializing Density Matrix...
 
Attempting to read DM from file... Failed...
DM filled with atomic data:
<dSpData2D:DM initialized from atoms
  <sparsity:sparsity for geom step 0
    nrows_g=2196 nrows=54 sparsity=.0107 nnzs=51799, refcount: 8>
  <dData2D:DM n=51799 m=1, refcount: 1>
refcount: 1>
No. of atoms with KB's overlaping orbs in proc 0. Max # of overlaps:     104     231

InitMesh: MESH = 180 x 180 x 432 = 13996800
InitMesh: Mesh cutoff (required, used) =   300.000   322.366 Ry
New grid distribution [1]: sub = 2
New grid distribution [2]: sub = 2
New grid distribution [3]: sub = 2
Setting up quadratic distribution...

stepf: Fermi-Dirac step function

siesta: Program's energy decomposition (eV):
siesta: Ebs     =    -14256.581308
siesta: Eions   =     68847.456686
siesta: Ena     =     15203.541609
siesta: Ekin    =     26883.300642
siesta: Enl     =     -1209.250094
siesta: Eso     =         0.000000
siesta: Edftu   =         0.000000
siesta: DEna    =      2065.938598
siesta: DUscf   =       132.243544
siesta: DUext   =         0.000000
siesta: Ex      =    -12861.245243
siesta: Ec      =     -1240.346056
siesta: Exc     =    -14101.591299
siesta: EbV     =         0.000000
siesta: eta*DQ  =         0.000000
siesta: Emadel  =         0.000000
siesta: Emeta   =         0.000000
siesta: Emolmec =         0.000000
siesta: Ekinion =         0.000000
siesta: Eharris =    -40839.236491
siesta: Etot    =    -39873.273687
siesta: FreeEng =    -39873.273687

        iscf     Eharris(eV)        E_KS(eV)     FreeEng(eV)     dDmax    Ef(eV) dHmax(eV)
   scf:    1   -40839.236491   -39873.273687   -39873.273687  1.204250 -1.461404  4.741056
timer: Routine,Calls,Time,% = IterSCF        1       1.821  35.44
   scf:    2   -39884.045261   -39878.730421   -39878.730421  0.008995 -1.877859  3.994076
   scf:    3   -39903.881118   -39893.027868   -39893.027868  0.048081 -4.075419  0.297222
   scf:    4   -39893.557036   -39893.346994   -39893.346994  0.008926 -3.897660  0.173483
   scf:    5   -39893.227194   -39893.324761   -39893.324761  0.003426 -4.196107  0.246394
   scf:    6   -39893.397716   -39893.370553   -39893.370553  0.001923 -3.805993  0.051073
   scf:    7   -39893.369499   -39893.370182   -39893.370182  0.000904 -4.287503  0.053798
   scf:    8   -39893.373818   -39893.372528   -39893.372528  0.000270 -4.302626  0.018188
   scf:    9   -39893.372674   -39893.372659   -39893.372659  0.000343 -4.316058  0.006199
   scf:   10   -39893.372748   -39893.372718   -39893.372718  0.000145 -4.311264  0.001164
   scf:   11   -39893.372724   -39893.372722   -39893.372722  0.000031 -4.312097  0.000258

SCF Convergence by DM+H criterion
max |DM_out - DM_in|         :     0.0000309345
max |H_out - H_in|      (eV) :     0.0002579623
SCF cycle converged after 11 iterations

Using DM_out to compute the final energy and forces
No. of atoms with KB's overlaping orbs in proc 0. Max # of overlaps:     104     231
System symmetry is of type slab but no DFTD3.Periodic list was found. Attempting to guess symmetry for D3.
Could not guess the right amount of periodicity directions for D3.
Enabling periodicity on all directions.

siesta: E_KS(eV) =           -39917.6531

siesta: E_KS - E_eggbox =    -39917.6531

siesta: Atomic forces (eV/Ang):
----------------------------------------
   Tot   -0.001679   -0.000426   -0.000153
----------------------------------------
   Max    1.202386
   Res    0.209667    sqrt( Sum f_i^2 / 3N )
----------------------------------------
   Max    1.202386    constrained

Stress tensor Voigt[x,y,z,yz,xz,xy] (kbar):      -25.39      -25.38       -4.69       -0.00       -0.00       -0.00
(Free)E + p*V (eV/cell)   -39770.0983
Target enthalpy (eV/cell)   -39917.6531

                     ====================================
                        Begin CG opt. move =      1
                     ====================================

outcell: Unit cell vectors (Ang):
       19.173802   -1.230000    0.000000
       10.652112   15.990000    0.000000
        0.000000    0.000000   40.000000

outcell: Cell vector modules (Ang)   :   19.213214   19.213214   40.000000
outcell: Cell angles (23,13,12) (deg):     90.0000     90.0000     60.0000
outcell: Cell volume (Ang**3)        :  12787.6480
<dSpData1D:S at geom step 1
  <sparsity:sparsity for geom step 1
    nrows_g=2196 nrows=54 sparsity=.0107 nnzs=51784, refcount: 7>
  <dData1D:(new from dSpData1D) n=51784, refcount: 1>
refcount: 1>
new_DM -- step:     2
Re-using DM from previous geometries...
Number of DMs in history: 1
 DM extrapolation coefficients: 
1   1.00000
New DM after history re-use:
<dSpData2D:SpM extrapolated using coords
  <sparsity:sparsity for geom step 1
    nrows_g=2196 nrows=54 sparsity=.0107 nnzs=51784, refcount: 9>
  <dData2D:(temp array for extrapolation) n=51784 m=1, refcount: 1>
refcount: 1>
No. of atoms with KB's overlaping orbs in proc 0. Max # of overlaps:     105     231

InitMesh: MESH = 180 x 180 x 432 = 13996800
InitMesh: Mesh cutoff (required, used) =   300.000   322.366 Ry
New grid distribution [1]: sub = 2
New grid distribution [2]: sub = 2
New grid distribution [3]: sub = 2
Setting up quadratic distribution...

        iscf     Eharris(eV)        E_KS(eV)     FreeEng(eV)     dDmax    Ef(eV) dHmax(eV)
   scf:    1   -39918.720560   -39918.246345   -39918.246345  0.033825 -3.842026  0.710222
   scf:    2   -39915.515310   -39917.418985   -39917.418985  0.039585 -3.872636  2.523630
   scf:    3   -39918.431625   -39918.295364   -39918.295364  0.031690 -3.838712  0.117112
   scf:    4   -39918.299221   -39918.297911   -39918.297911  0.002327 -3.837779  0.021097
   scf:    5   -39918.298977   -39918.298499   -39918.298499  0.000441 -3.837455  0.008531
   scf:    6   -39918.298756   -39918.298639   -39918.298639  0.000227 -3.837355  0.003623
   scf:    7   -39918.298676   -39918.298659   -39918.298659  0.000064 -3.837325  0.002009
   scf:    8   -39918.298676   -39918.298669   -39918.298669  0.000062 -3.837299  0.000441

SCF Convergence by DM+H criterion
max |DM_out - DM_in|         :     0.0000624482
max |H_out - H_in|      (eV) :     0.0004412623
SCF cycle converged after 8 iterations

Using DM_out to compute the final energy and forces
No. of atoms with KB's overlaping orbs in proc 0. Max # of overlaps:     105     231
System symmetry is of type slab but no DFTD3.Periodic list was found. Attempting to guess symmetry for D3.
Could not guess the right amount of periodicity directions for D3.
Enabling periodicity on all directions.

siesta: E_KS(eV) =           -39918.2910

siesta: Atomic forces (eV/Ang):
----------------------------------------
   Tot    0.000478    0.000055    0.002178
----------------------------------------
   Max    0.337024
   Res    0.084159    sqrt( Sum f_i^2 / 3N )
----------------------------------------
   Max    0.337024    constrained

Stress tensor Voigt[x,y,z,yz,xz,xy] (kbar):      -25.47      -25.54       -4.84        0.00       -0.00        0.04
(Free)E + p*V (eV/cell)   -39769.6842
Target enthalpy (eV/cell)   -39918.2910

                     ====================================
                        Begin CG opt. move =      2
                     ====================================

outcell: Unit cell vectors (Ang):
       19.173802   -1.230000    0.000000
       10.652112   15.990000    0.000000
        0.000000    0.000000   40.000000

outcell: Cell vector modules (Ang)   :   19.213214   19.213214   40.000000
outcell: Cell angles (23,13,12) (deg):     90.0000     90.0000     60.0000
outcell: Cell volume (Ang**3)        :  12787.6480
<dSpData1D:S at geom step 2
  <sparsity:sparsity for geom step 2
    nrows_g=2196 nrows=54 sparsity=.0107 nnzs=51784, refcount: 7>
  <dData1D:(new from dSpData1D) n=51784, refcount: 1>
refcount: 1>
new_DM -- step:     3
Re-using DM from previous geometries...
Number of DMs in history: 1
 DM extrapolation coefficients: 
1   1.00000
New DM after history re-use:
<dSpData2D:SpM extrapolated using coords
  <sparsity:sparsity for geom step 2
    nrows_g=2196 nrows=54 sparsity=.0107 nnzs=51784, refcount: 9>
  <dData2D:(temp array for extrapolation) n=51784 m=1, refcount: 1>
refcount: 1>
No. of atoms with KB's overlaping orbs in proc 0. Max # of overlaps:     105     231

InitMesh: MESH = 180 x 180 x 432 = 13996800
InitMesh: Mesh cutoff (required, used) =   300.000   322.366 Ry
New grid distribution [1]: sub = 2
New grid distribution [2]: sub = 2
New grid distribution [3]: sub = 2
Setting up quadratic distribution...

        iscf     Eharris(eV)        E_KS(eV)     FreeEng(eV)     dDmax    Ef(eV) dHmax(eV)
   scf:    1   -39918.308932   -39918.304342   -39918.304342  0.004387 -3.834326  0.017258
   scf:    2   -39918.302133   -39918.303720   -39918.303720  0.001386 -3.834283  0.067811
   scf:    3   -39918.304507   -39918.304435   -39918.304435  0.001085 -3.834314  0.004406
   scf:    4   -39918.304480   -39918.304460   -39918.304460  0.000151 -3.834314  0.001895
   scf:    5   -39918.304475   -39918.304468   -39918.304468  0.000070 -3.834313  0.000867

SCF Convergence by DM+H criterion
max |DM_out - DM_in|         :     0.0000695104
max |H_out - H_in|      (eV) :     0.0008669255
SCF cycle converged after 5 iterations

Using DM_out to compute the final energy and forces
No. of atoms with KB's overlaping orbs in proc 0. Max # of overlaps:     105     231
System symmetry is of type slab but no DFTD3.Periodic list was found. Attempting to guess symmetry for D3.
Could not guess the right amount of periodicity directions for D3.
Enabling periodicity on all directions.

siesta: E_KS(eV) =           -39918.3053

siesta: Atomic forces (eV/Ang):
----------------------------------------
   Tot    0.000445    0.000099    0.002512
----------------------------------------
   Max    0.261391
   Res    0.068350    sqrt( Sum f_i^2 / 3N )
----------------------------------------
   Max    0.261391    constrained

Stress tensor Voigt[x,y,z,yz,xz,xy] (kbar):      -25.47      -25.53       -4.85        0.00       -0.00        0.04
(Free)E + p*V (eV/cell)   -39769.7116
Target enthalpy (eV/cell)   -39918.3053

cgvc: Finished line minimization    1.  Mean atomic displacement =    0.0279

                     ====================================
                        Begin CG opt. move =      3
                     ====================================

outcell: Unit cell vectors (Ang):
       19.173802   -1.230000    0.000000
       10.652112   15.990000    0.000000
        0.000000    0.000000   40.000000

outcell: Cell vector modules (Ang)   :   19.213214   19.213214   40.000000
outcell: Cell angles (23,13,12) (deg):     90.0000     90.0000     60.0000
outcell: Cell volume (Ang**3)        :  12787.6480
<dSpData1D:S at geom step 3
  <sparsity:sparsity for geom step 3
    nrows_g=2196 nrows=54 sparsity=.0109 nnzs=52516, refcount: 7>
  <dData1D:(new from dSpData1D) n=52516, refcount: 1>
refcount: 1>
new_DM -- step:     4
Re-using DM from previous geometries...
Number of DMs in history: 1
 DM extrapolation coefficients: 
1   1.00000
New DM after history re-use:
<dSpData2D:SpM extrapolated using coords
  <sparsity:sparsity for geom step 3
    nrows_g=2196 nrows=54 sparsity=.0109 nnzs=52516, refcount: 9>
  <dData2D:(temp array for extrapolation) n=52516 m=1, refcount: 1>
refcount: 1>
No. of atoms with KB's overlaping orbs in proc 0. Max # of overlaps:     107     234

InitMesh: MESH = 180 x 180 x 432 = 13996800
InitMesh: Mesh cutoff (required, used) =   300.000   322.366 Ry
New grid distribution [1]: sub = 2
New grid distribution [2]: sub = 2
New grid distribution [3]: sub = 2
Setting up quadratic distribution...

        iscf     Eharris(eV)        E_KS(eV)     FreeEng(eV)     dDmax    Ef(eV) dHmax(eV)
   scf:    1   -39917.088296   -39917.364731   -39917.364731  0.033427 -4.209487  0.614539
   scf:    2   -39915.383592   -39916.819433   -39916.819433  0.064354 -4.210335  1.898018
   scf:    3   -39917.532194   -39917.461044   -39917.461044  0.049568 -4.205851  0.180079
   scf:    4   -39917.483236   -39917.475559   -39917.475559  0.007148 -4.205660  0.046898
   scf:    5   -39917.478405   -39917.477179   -39917.477179  0.000922 -4.205730  0.019192
   scf:    6   -39917.477951   -39917.477606   -39917.477606  0.000632 -4.205723  0.007927
   scf:    7   -39917.477714   -39917.477663   -39917.477663  0.000152 -4.205724  0.004978
   scf:    8   -39917.477699   -39917.477685   -39917.477685  0.000222 -4.205700  0.000947
   scf:    9   -39917.477688   -39917.477687   -39917.477687  0.000025 -4.205688  0.000422

SCF Convergence by DM+H criterion
max |DM_out - DM_in|         :     0.0000247442
max |H_out - H_in|      (eV) :     0.0004219949
SCF cycle converged after 9 iterations

Using DM_out to compute the final energy and forces
No. of atoms with KB's overlaping orbs in proc 0. Max # of overlaps:     107     234
System symmetry is of type slab but no DFTD3.Periodic list was found. Attempting to guess symmetry for D3.
Could not guess the right amount of periodicity directions for D3.
Enabling periodicity on all directions.

siesta: E_KS(eV) =           -39917.4588

siesta: Atomic forces (eV/Ang):
----------------------------------------
   Tot   -0.000142    0.002327   -0.000809
----------------------------------------
   Max    2.775242
   Res    0.521833    sqrt( Sum f_i^2 / 3N )
----------------------------------------
   Max    2.775242    constrained

Stress tensor Voigt[x,y,z,yz,xz,xy] (kbar):      -26.16      -25.44       -4.82       -0.00        0.01       -0.46
(Free)E + p*V (eV/cell)   -39767.3520
Target enthalpy (eV/cell)   -39917.4588

                     ====================================
                        Begin CG opt. move =      4
                     ====================================

outcell: Unit cell vectors (Ang):
       19.173802   -1.230000    0.000000
       10.652112   15.990000    0.000000
        0.000000    0.000000   40.000000

outcell: Cell vector modules (Ang)   :   19.213214   19.213214   40.000000
outcell: Cell angles (23,13,12) (deg):     90.0000     90.0000     60.0000
outcell: Cell volume (Ang**3)        :  12787.6480
<dSpData1D:S at geom step 4
  <sparsity:sparsity for geom step 4
    nrows_g=2196 nrows=54 sparsity=.0107 nnzs=51787, refcount: 7>
  <dData1D:(new from dSpData1D) n=51787, refcount: 1>
refcount: 1>
new_DM -- step:     5
Re-using DM from previous geometries...
Number of DMs in history: 1
 DM extrapolation coefficients: 
1   1.00000
New DM after history re-use:
<dSpData2D:SpM extrapolated using coords
  <sparsity:sparsity for geom step 4
    nrows_g=2196 nrows=54 sparsity=.0107 nnzs=51787, refcount: 9>
  <dData2D:(temp array for extrapolation) n=51787 m=1, refcount: 1>
refcount: 1>
No. of atoms with KB's overlaping orbs in proc 0. Max # of overlaps:     105     231

InitMesh: MESH = 180 x 180 x 432 = 13996800
InitMesh: Mesh cutoff (required, used) =   300.000   322.366 Ry
New grid distribution [1]: sub = 2
New grid distribution [2]: sub = 2
New grid distribution [3]: sub = 2
Setting up quadratic distribution...

        iscf     Eharris(eV)        E_KS(eV)     FreeEng(eV)     dDmax    Ef(eV) dHmax(eV)
   scf:    1   -39918.399297   -39918.250383   -39918.250383  0.035022 -3.832293  0.348007
   scf:    2   -39917.084169   -39917.932598   -39917.932598  0.047806 -3.848565  0.974730
   scf:    3   -39918.347249   -39918.310509   -39918.310509  0.037117 -3.833020  0.141092
   scf:    4   -39918.325808   -39918.320699   -39918.320699  0.006222 -3.833073  0.035717
   scf:    5   -39918.322555   -39918.321740   -39918.321740  0.000542 -3.833203  0.013945
   scf:    6   -39918.322173   -39918.321980   -39918.321980  0.000444 -3.833267  0.005074
   scf:    7   -39918.322029   -39918.322007   -39918.322007  0.000148 -3.833276  0.002153
   scf:    8   -39918.322020   -39918.322015   -39918.322015  0.000112 -3.833289  0.000795
   scf:    9   -39918.322017   -39918.322016   -39918.322016  0.000021 -3.833293  0.000347

SCF Convergence by DM+H criterion
max |DM_out - DM_in|         :     0.0000208709
max |H_out - H_in|      (eV) :     0.0003467580
SCF cycle converged after 9 iterations

Using DM_out to compute the final energy and forces
No. of atoms with KB's overlaping orbs in proc 0. Max # of overlaps:     105     231
System symmetry is of type slab but no DFTD3.Periodic list was found. Attempting to guess symmetry for D3.
Could not guess the right amount of periodicity directions for D3.
Enabling periodicity on all directions.

siesta: E_KS(eV) =           -39918.3380

siesta: Atomic forces (eV/Ang):
----------------------------------------
   Tot    0.000780   -0.001377    0.002847
----------------------------------------
   Max    0.264021
   Res    0.062765    sqrt( Sum f_i^2 / 3N )
----------------------------------------
   Max    0.264015    constrained

Stress tensor Voigt[x,y,z,yz,xz,xy] (kbar):      -25.55      -25.48       -4.85       -0.00       -0.00       -0.04
(Free)E + p*V (eV/cell)   -39769.6675
Target enthalpy (eV/cell)   -39918.3380

cgvc: Finished line minimization    2.  Mean atomic displacement =    0.0045

                     ====================================
                        Begin CG opt. move =      5
                     ====================================

outcell: Unit cell vectors (Ang):
       19.173802   -1.230000    0.000000
       10.652112   15.990000    0.000000
        0.000000    0.000000   40.000000

outcell: Cell vector modules (Ang)   :   19.213214   19.213214   40.000000
outcell: Cell angles (23,13,12) (deg):     90.0000     90.0000     60.0000
outcell: Cell volume (Ang**3)        :  12787.6480
<dSpData1D:S at geom step 5
  <sparsity:sparsity for geom step 5
    nrows_g=2196 nrows=54 sparsity=.0107 nnzs=51790, refcount: 7>
  <dData1D:(new from dSpData1D) n=51790, refcount: 1>
refcount: 1>
new_DM -- step:     6
Re-using DM from previous geometries...
Number of DMs in history: 1
 DM extrapolation coefficients: 
1   1.00000
New DM after history re-use:
<dSpData2D:SpM extrapolated using coords
  <sparsity:sparsity for geom step 5
    nrows_g=2196 nrows=54 sparsity=.0107 nnzs=51790, refcount: 9>
  <dData2D:(temp array for extrapolation) n=51790 m=1, refcount: 1>
refcount: 1>
No. of atoms with KB's overlaping orbs in proc 0. Max # of overlaps:     105     231

InitMesh: MESH = 180 x 180 x 432 = 13996800
InitMesh: Mesh cutoff (required, used) =   300.000   322.366 Ry
New grid distribution [1]: sub = 2
New grid distribution [2]: sub = 2
New grid distribution [3]: sub = 2
Setting up quadratic distribution...

        iscf     Eharris(eV)        E_KS(eV)     FreeEng(eV)     dDmax    Ef(eV) dHmax(eV)
   scf:    1   -39918.393644   -39918.374456   -39918.374456  0.002992 -3.837612  0.022106
   scf:    2   -39918.369520   -39918.373196   -39918.373196  0.002169 -3.837797  0.069943
   scf:    3   -39918.374960   -39918.374819   -39918.374819  0.001660 -3.837626  0.006260
   scf:    4   -39918.374942   -39918.374891   -39918.374891  0.000229 -3.837592  0.003175
   scf:    5   -39918.374922   -39918.374909   -39918.374909  0.000102 -3.837589  0.000919
   scf:    6   -39918.374911   -39918.374910   -39918.374910  0.000034 -3.837593  0.000228

SCF Convergence by DM+H criterion
max |DM_out - DM_in|         :     0.0000339782
max |H_out - H_in|      (eV) :     0.0002284852
SCF cycle converged after 6 iterations

Using DM_out to compute the final energy and forces
No. of atoms with KB's overlaping orbs in proc 0. Max # of overlaps:     105     231
System symmetry is of type slab but no DFTD3.Periodic list was found. Attempting to guess symmetry for D3.
Could not guess the right amount of periodicity directions for D3.
Enabling periodicity on all directions.

siesta: E_KS(eV) =           -39918.3708

siesta: Atomic forces (eV/Ang):
----------------------------------------
   Tot    0.001096   -0.001280    0.001435
----------------------------------------
   Max    0.133955
   Res    0.034104    sqrt( Sum f_i^2 / 3N )
----------------------------------------
   Max    0.133960    constrained

Stress tensor Voigt[x,y,z,yz,xz,xy] (kbar):      -25.53      -25.52       -4.85       -0.00       -0.00       -0.01
(Free)E + p*V (eV/cell)   -39769.6453
Target enthalpy (eV/cell)   -39918.3708

                     ====================================
                        Begin CG opt. move =      6
                     ====================================

outcell: Unit cell vectors (Ang):
       19.173802   -1.230000    0.000000
       10.652112   15.990000    0.000000
        0.000000    0.000000   40.000000

outcell: Cell vector modules (Ang)   :   19.213214   19.213214   40.000000
outcell: Cell angles (23,13,12) (deg):     90.0000     90.0000     60.0000
outcell: Cell volume (Ang**3)        :  12787.6480
<dSpData1D:S at geom step 6
  <sparsity:sparsity for geom step 6
    nrows_g=2196 nrows=54 sparsity=.0107 nnzs=51800, refcount: 7>
  <dData1D:(new from dSpData1D) n=51800, refcount: 1>
refcount: 1>
new_DM -- step:     7
Re-using DM from previous geometries...
Number of DMs in history: 1
 DM extrapolation coefficients: 
1   1.00000
New DM after history re-use:
<dSpData2D:SpM extrapolated using coords
  <sparsity:sparsity for geom step 6
    nrows_g=2196 nrows=54 sparsity=.0107 nnzs=51800, refcount: 9>
  <dData2D:(temp array for extrapolation) n=51800 m=1, refcount: 1>
refcount: 1>
No. of atoms with KB's overlaping orbs in proc 0. Max # of overlaps:     105     231

InitMesh: MESH = 180 x 180 x 432 = 13996800
InitMesh: Mesh cutoff (required, used) =   300.000   322.366 Ry
New grid distribution [1]: sub = 2
New grid distribution [2]: sub = 2
New grid distribution [3]: sub = 2
Setting up quadratic distribution...

        iscf     Eharris(eV)        E_KS(eV)     FreeEng(eV)     dDmax    Ef(eV) dHmax(eV)
   scf:    1   -39918.407675   -39918.375831   -39918.375831  0.004799 -3.839902  0.044653
   scf:    2   -39918.357323   -39918.370819   -39918.370819  0.003922 -3.841064  0.160426
   scf:    3   -39918.377376   -39918.376835   -39918.376835  0.003073 -3.840050  0.010520
   scf:    4   -39918.377197   -39918.377052   -39918.377052  0.000407 -3.840024  0.005177
   scf:    5   -39918.377131   -39918.377097   -39918.377097  0.000163 -3.840043  0.001707
   scf:    6   -39918.377105   -39918.377101   -39918.377101  0.000055 -3.840055  0.000403

SCF Convergence by DM+H criterion
max |DM_out - DM_in|         :     0.0000549367
max |H_out - H_in|      (eV) :     0.0004025349
SCF cycle converged after 6 iterations

Using DM_out to compute the final energy and forces
No. of atoms with KB's overlaping orbs in proc 0. Max # of overlaps:     105     231
System symmetry is of type slab but no DFTD3.Periodic list was found. Attempting to guess symmetry for D3.
Could not guess the right amount of periodicity directions for D3.
Enabling periodicity on all directions.

siesta: E_KS(eV) =           -39918.3707

siesta: Atomic forces (eV/Ang):
----------------------------------------
   Tot    0.000319   -0.000881   -0.000575
----------------------------------------
   Max    0.219670
   Res    0.056955    sqrt( Sum f_i^2 / 3N )
----------------------------------------
   Max    0.219669    constrained

Stress tensor Voigt[x,y,z,yz,xz,xy] (kbar):      -25.50      -25.58       -4.84       -0.00       -0.00        0.05
(Free)E + p*V (eV/cell)   -39769.6185
Target enthalpy (eV/cell)   -39918.3707

                     ====================================
                        Begin CG opt. move =      7
                     ====================================

outcell: Unit cell vectors (Ang):
       19.173802   -1.230000    0.000000
       10.652112   15.990000    0.000000
        0.000000    0.000000   40.000000

outcell: Cell vector modules (Ang)   :   19.213214   19.213214   40.000000
outcell: Cell angles (23,13,12) (deg):     90.0000     90.0000     60.0000
outcell: Cell volume (Ang**3)        :  12787.6480
<dSpData1D:S at geom step 7
  <sparsity:sparsity for geom step 7
    nrows_g=2196 nrows=54 sparsity=.0107 nnzs=51800, refcount: 7>
  <dData1D:(new from dSpData1D) n=51800, refcount: 1>
refcount: 1>
new_DM -- step:     8
Re-using DM from previous geometries...
Number of DMs in history: 1
 DM extrapolation coefficients: 
1   1.00000
New DM after history re-use:
<dSpData2D:SpM extrapolated using coords
  <sparsity:sparsity for geom step 7
    nrows_g=2196 nrows=54 sparsity=.0107 nnzs=51800, refcount: 9>
  <dData2D:(temp array for extrapolation) n=51800 m=1, refcount: 1>
refcount: 1>
No. of atoms with KB's overlaping orbs in proc 0. Max # of overlaps:     105     231

InitMesh: MESH = 180 x 180 x 432 = 13996800
InitMesh: Mesh cutoff (required, used) =   300.000   322.366 Ry
New grid distribution [1]: sub = 2
New grid distribution [2]: sub = 2
New grid distribution [3]: sub = 2
Setting up quadratic distribution...

        iscf     Eharris(eV)        E_KS(eV)     FreeEng(eV)     dDmax    Ef(eV) dHmax(eV)
   scf:    1   -39918.370453   -39918.375375   -39918.375375  0.002407 -3.838923  0.017663
   scf:    2   -39918.372649   -39918.374700   -39918.374700  0.001735 -3.838677  0.045411
   scf:    3   -39918.375698   -39918.375605   -39918.375605  0.001310 -3.838882  0.004886
   scf:    4   -39918.375675   -39918.375646   -39918.375646  0.000165 -3.838891  0.002578
   scf:    5   -39918.375666   -39918.375657   -39918.375657  0.000085 -3.838880  0.000668

SCF Convergence by DM+H criterion
max |DM_out - DM_in|         :     0.0000853464
max |H_out - H_in|      (eV) :     0.0006676399
SCF cycle converged after 5 iterations

Using DM_out to compute the final energy and forces
No. of atoms with KB's overlaping orbs in proc 0. Max # of overlaps:     105     231
System symmetry is of type slab but no DFTD3.Periodic list was found. Attempting to guess symmetry for D3.
Could not guess the right amount of periodicity directions for D3.
Enabling periodicity on all directions.

siesta: E_KS(eV) =           -39918.3788

siesta: Atomic forces (eV/Ang):
----------------------------------------
   Tot    0.000210   -0.000892    0.000102
----------------------------------------
   Max    0.128133
   Res    0.034681    sqrt( Sum f_i^2 / 3N )
----------------------------------------
   Max    0.128129    constrained

Stress tensor Voigt[x,y,z,yz,xz,xy] (kbar):      -25.51      -25.55       -4.85       -0.00       -0.00        0.02
(Free)E + p*V (eV/cell)   -39769.6299
Target enthalpy (eV/cell)   -39918.3788

cgvc: Finished line minimization    3.  Mean atomic displacement =    0.0081

                     ====================================
                        Begin CG opt. move =      8
                     ====================================

outcell: Unit cell vectors (Ang):
       19.173802   -1.230000    0.000000
       10.652112   15.990000    0.000000
        0.000000    0.000000   40.000000

outcell: Cell vector modules (Ang)   :   19.213214   19.213214   40.000000
outcell: Cell angles (23,13,12) (deg):     90.0000     90.0000     60.0000
outcell: Cell volume (Ang**3)        :  12787.6480
<dSpData1D:S at geom step 8
  <sparsity:sparsity for geom step 8
    nrows_g=2196 nrows=54 sparsity=.0107 nnzs=51791, refcount: 7>
  <dData1D:(new from dSpData1D) n=51791, refcount: 1>
refcount: 1>
new_DM -- step:     9
Re-using DM from previous geometries...
Number of DMs in history: 1
 DM extrapolation coefficients: 
1   1.00000
New DM after history re-use:
<dSpData2D:SpM extrapolated using coords
  <sparsity:sparsity for geom step 8
    nrows_g=2196 nrows=54 sparsity=.0107 nnzs=51791, refcount: 9>
  <dData2D:(temp array for extrapolation) n=51791 m=1, refcount: 1>
refcount: 1>
No. of atoms with KB's overlaping orbs in proc 0. Max # of overlaps:     105     231

InitMesh: MESH = 180 x 180 x 432 = 13996800
InitMesh: Mesh cutoff (required, used) =   300.000   322.366 Ry
New grid distribution [1]: sub = 2
New grid distribution [2]: sub = 2
New grid distribution [3]: sub = 2
Setting up quadratic distribution...

        iscf     Eharris(eV)        E_KS(eV)     FreeEng(eV)     dDmax    Ef(eV) dHmax(eV)
   scf:    1   -39918.358454   -39918.355750   -39918.355750  0.004884 -3.845790  0.176535
   scf:    2   -39918.234368   -39918.325602   -39918.325602  0.017918 -3.845381  0.364017
   scf:    3   -39918.377082   -39918.366223   -39918.366223  0.012475 -3.845641  0.013181
   scf:    4   -39918.366665   -39918.366485   -39918.366485  0.000578 -3.845644  0.007386
   scf:    5   -39918.366676   -39918.366594   -39918.366594  0.000164 -3.845667  0.002945
   scf:    6   -39918.366625   -39918.366611   -39918.366611  0.000086 -3.845685  0.001052
   scf:    7   -39918.366615   -39918.366613   -39918.366613  0.000034 -3.845690  0.000462

SCF Convergence by DM+H criterion
max |DM_out - DM_in|         :     0.0000339055
max |H_out - H_in|      (eV) :     0.0004623440
SCF cycle converged after 7 iterations

Using DM_out to compute the final energy and forces
No. of atoms with KB's overlaping orbs in proc 0. Max # of overlaps:     105     231
System symmetry is of type slab but no DFTD3.Periodic list was found. Attempting to guess symmetry for D3.
Could not guess the right amount of periodicity directions for D3.
Enabling periodicity on all directions.

siesta: E_KS(eV) =           -39918.3550

siesta: Atomic forces (eV/Ang):
----------------------------------------
   Tot    0.001579    0.001634    0.000130
----------------------------------------
   Max    0.452172
   Res    0.112619    sqrt( Sum f_i^2 / 3N )
----------------------------------------
   Max    0.452165    constrained

Stress tensor Voigt[x,y,z,yz,xz,xy] (kbar):      -25.62      -25.50       -4.83       -0.00       -0.00       -0.08
(Free)E + p*V (eV/cell)   -39769.5153
Target enthalpy (eV/cell)   -39918.3550

                     ====================================
                        Begin CG opt. move =      9
                     ====================================

outcell: Unit cell vectors (Ang):
       19.173802   -1.230000    0.000000
       10.652112   15.990000    0.000000
        0.000000    0.000000   40.000000

outcell: Cell vector modules (Ang)   :   19.213214   19.213214   40.000000
outcell: Cell angles (23,13,12) (deg):     90.0000     90.0000     60.0000
outcell: Cell volume (Ang**3)        :  12787.6480
<dSpData1D:S at geom step 9
  <sparsity:sparsity for geom step 9
    nrows_g=2196 nrows=54 sparsity=.0107 nnzs=51791, refcount: 7>
  <dData1D:(new from dSpData1D) n=51791, refcount: 1>
refcount: 1>
new_DM -- step:    10
Re-using DM from previous geometries...
Number of DMs in history: 1
 DM extrapolation coefficients: 
1   1.00000
New DM after history re-use:
<dSpData2D:SpM extrapolated using coords
  <sparsity:sparsity for geom step 9
    nrows_g=2196 nrows=54 sparsity=.0107 nnzs=51791, refcount: 9>
  <dData2D:(temp array for extrapolation) n=51791 m=1, refcount: 1>
refcount: 1>
No. of atoms with KB's overlaping orbs in proc 0. Max # of overlaps:     105     231

InitMesh: MESH = 180 x 180 x 432 = 13996800
InitMesh: Mesh cutoff (required, used) =   300.000   322.366 Ry
New grid distribution [1]: sub = 2
New grid distribution [2]: sub = 2
New grid distribution [3]: sub = 2
Setting up quadratic distribution...

        iscf     Eharris(eV)        E_KS(eV)     FreeEng(eV)     dDmax    Ef(eV) dHmax(eV)
   scf:    1   -39918.357022   -39918.375083   -39918.375083  0.003239 -3.842003  0.118377
   scf:    2   -39918.324292   -39918.362542   -39918.362542  0.011947 -3.842820  0.243348
   scf:    3   -39918.384693   -39918.379592   -39918.379592  0.008112 -3.842210  0.007466
   scf:    4   -39918.379742   -39918.379676   -39918.379676  0.000209 -3.842190  0.004640
   scf:    5   -39918.379752   -39918.379719   -39918.379719  0.000099 -3.842181  0.001685
   scf:    6   -39918.379731   -39918.379726   -39918.379726  0.000061 -3.842171  0.000554

SCF Convergence by DM+H criterion
max |DM_out - DM_in|         :     0.0000606393
max |H_out - H_in|      (eV) :     0.0005539524
SCF cycle converged after 6 iterations

Using DM_out to compute the final energy and forces
No. of atoms with KB's overlaping orbs in proc 0. Max # of overlaps:     105     231
System symmetry is of type slab but no DFTD3.Periodic list was found. Attempting to guess symmetry for D3.
Could not guess the right amount of periodicity directions for D3.
Enabling periodicity on all directions.

siesta: E_KS(eV) =           -39918.3874

siesta: Atomic forces (eV/Ang):
----------------------------------------
   Tot   -0.000268    0.000494   -0.000588
----------------------------------------
   Max    0.114354
   Res    0.030703    sqrt( Sum f_i^2 / 3N )
----------------------------------------
   Max    0.114354    constrained

Stress tensor Voigt[x,y,z,yz,xz,xy] (kbar):      -25.55      -25.53       -4.84       -0.00       -0.00       -0.01
(Free)E + p*V (eV/cell)   -39769.6237
Target enthalpy (eV/cell)   -39918.3874

cgvc: Finished line minimization    4.  Mean atomic displacement =    0.0028

                     ====================================
                        Begin CG opt. move =     10
                     ====================================

outcell: Unit cell vectors (Ang):
       19.173802   -1.230000    0.000000
       10.652112   15.990000    0.000000
        0.000000    0.000000   40.000000

outcell: Cell vector modules (Ang)   :   19.213214   19.213214   40.000000
outcell: Cell angles (23,13,12) (deg):     90.0000     90.0000     60.0000
outcell: Cell volume (Ang**3)        :  12787.6480
<dSpData1D:S at geom step 10
  <sparsity:sparsity for geom step 10
    nrows_g=2196 nrows=54 sparsity=.0107 nnzs=51791, refcount: 7>
  <dData1D:(new from dSpData1D) n=51791, refcount: 1>
refcount: 1>
new_DM -- step:    11
Re-using DM from previous geometries...
Number of DMs in history: 1
 DM extrapolation coefficients: 
1   1.00000
New DM after history re-use:
<dSpData2D:SpM extrapolated using coords
  <sparsity:sparsity for geom step 10
    nrows_g=2196 nrows=54 sparsity=.0107 nnzs=51791, refcount: 9>
  <dData2D:(temp array for extrapolation) n=51791 m=1, refcount: 1>
refcount: 1>
No. of atoms with KB's overlaping orbs in proc 0. Max # of overlaps:     105     231

InitMesh: MESH = 180 x 180 x 432 = 13996800
InitMesh: Mesh cutoff (required, used) =   300.000   322.366 Ry
New grid distribution [1]: sub = 2
New grid distribution [2]: sub = 2
New grid distribution [3]: sub = 2
Setting up quadratic distribution...

        iscf     Eharris(eV)        E_KS(eV)     FreeEng(eV)     dDmax    Ef(eV) dHmax(eV)
   scf:    1   -39918.417650   -39918.402059   -39918.402059  0.001491 -3.844514  0.023501
   scf:    2   -39918.397782   -39918.400947   -39918.400947  0.001857 -3.844323  0.064522
   scf:    3   -39918.402640   -39918.402356   -39918.402356  0.001373 -3.844464  0.003394
   scf:    4   -39918.402387   -39918.402374   -39918.402374  0.000080 -3.844461  0.001968
   scf:    5   -39918.402386   -39918.402381   -39918.402381  0.000047 -3.844474  0.000473

SCF Convergence by DM+H criterion
max |DM_out - DM_in|         :     0.0000465181
max |H_out - H_in|      (eV) :     0.0004728212
SCF cycle converged after 5 iterations

Using DM_out to compute the final energy and forces
No. of atoms with KB's overlaping orbs in proc 0. Max # of overlaps:     105     231
System symmetry is of type slab but no DFTD3.Periodic list was found. Attempting to guess symmetry for D3.
Could not guess the right amount of periodicity directions for D3.
Enabling periodicity on all directions.

siesta: E_KS(eV) =           -39918.3972

siesta: Atomic forces (eV/Ang):
----------------------------------------
   Tot   -0.000202    0.000213    0.000695
----------------------------------------
   Max    0.092184
   Res    0.021815    sqrt( Sum f_i^2 / 3N )
----------------------------------------
   Max    0.092183    constrained

Stress tensor Voigt[x,y,z,yz,xz,xy] (kbar):      -25.55      -25.54       -4.83       -0.00       -0.00       -0.00
(Free)E + p*V (eV/cell)   -39769.6219
Target enthalpy (eV/cell)   -39918.3972

                     ====================================
                        Begin CG opt. move =     11
                     ====================================

outcell: Unit cell vectors (Ang):
       19.173802   -1.230000    0.000000
       10.652112   15.990000    0.000000
        0.000000    0.000000   40.000000

outcell: Cell vector modules (Ang)   :   19.213214   19.213214   40.000000
outcell: Cell angles (23,13,12) (deg):     90.0000     90.0000     60.0000
outcell: Cell volume (Ang**3)        :  12787.6480
<dSpData1D:S at geom step 11
  <sparsity:sparsity for geom step 11
    nrows_g=2196 nrows=54 sparsity=.0107 nnzs=51786, refcount: 7>
  <dData1D:(new from dSpData1D) n=51786, refcount: 1>
refcount: 1>
new_DM -- step:    12
Re-using DM from previous geometries...
Number of DMs in history: 1
 DM extrapolation coefficients: 
1   1.00000
New DM after history re-use:
<dSpData2D:SpM extrapolated using coords
  <sparsity:sparsity for geom step 11
    nrows_g=2196 nrows=54 sparsity=.0107 nnzs=51786, refcount: 9>
  <dData2D:(temp array for extrapolation) n=51786 m=1, refcount: 1>
refcount: 1>
No. of atoms with KB's overlaping orbs in proc 0. Max # of overlaps:     105     231

InitMesh: MESH = 180 x 180 x 432 = 13996800
InitMesh: Mesh cutoff (required, used) =   300.000   322.366 Ry
New grid distribution [1]: sub = 2
New grid distribution [2]: sub = 2
New grid distribution [3]: sub = 2
Setting up quadratic distribution...

        iscf     Eharris(eV)        E_KS(eV)     FreeEng(eV)     dDmax    Ef(eV) dHmax(eV)
   scf:    1   -39918.431892   -39918.408290   -39918.408290  0.002391 -3.846334  0.035508
   scf:    2   -39918.397518   -39918.405496   -39918.405496  0.002954 -3.846210  0.094679
   scf:    3   -39918.409770   -39918.409047   -39918.409047  0.002174 -3.846289  0.005264
   scf:    4   -39918.409122   -39918.409091   -39918.409091  0.000132 -3.846286  0.003073
   scf:    5   -39918.409121   -39918.409109   -39918.409109  0.000075 -3.846312  0.000734

SCF Convergence by DM+H criterion
max |DM_out - DM_in|         :     0.0000749947
max |H_out - H_in|      (eV) :     0.0007340022
SCF cycle converged after 5 iterations

Using DM_out to compute the final energy and forces
No. of atoms with KB's overlaping orbs in proc 0. Max # of overlaps:     105     231
System symmetry is of type slab but no DFTD3.Periodic list was found. Attempting to guess symmetry for D3.
Could not guess the right amount of periodicity directions for D3.
Enabling periodicity on all directions.

siesta: E_KS(eV) =           -39918.4008

siesta: Atomic forces (eV/Ang):
----------------------------------------
   Tot   -0.001229   -0.001138    0.000361
----------------------------------------
   Max    0.148269
   Res    0.036750    sqrt( Sum f_i^2 / 3N )
----------------------------------------
   Max    0.148274    constrained

Stress tensor Voigt[x,y,z,yz,xz,xy] (kbar):      -25.54      -25.56       -4.82       -0.00       -0.00        0.01
(Free)E + p*V (eV/cell)   -39769.6163
Target enthalpy (eV/cell)   -39918.4008

                     ====================================
                        Begin CG opt. move =     12
                     ====================================

outcell: Unit cell vectors (Ang):
       19.173802   -1.230000    0.000000
       10.652112   15.990000    0.000000
        0.000000    0.000000   40.000000

outcell: Cell vector modules (Ang)   :   19.213214   19.213214   40.000000
outcell: Cell angles (23,13,12) (deg):     90.0000     90.0000     60.0000
outcell: Cell volume (Ang**3)        :  12787.6480
<dSpData1D:S at geom step 12
  <sparsity:sparsity for geom step 12
    nrows_g=2196 nrows=54 sparsity=.0107 nnzs=51786, refcount: 7>
  <dData1D:(new from dSpData1D) n=51786, refcount: 1>
refcount: 1>
new_DM -- step:    13
Re-using DM from previous geometries...
Number of DMs in history: 1
 DM extrapolation coefficients: 
1   1.00000
New DM after history re-use:
<dSpData2D:SpM extrapolated using coords
  <sparsity:sparsity for geom step 12
    nrows_g=2196 nrows=54 sparsity=.0107 nnzs=51786, refcount: 9>
  <dData2D:(temp array for extrapolation) n=51786 m=1, refcount: 1>
refcount: 1>
No. of atoms with KB's overlaping orbs in proc 0. Max # of overlaps:     105     231

InitMesh: MESH = 180 x 180 x 432 = 13996800
InitMesh: Mesh cutoff (required, used) =   300.000   322.366 Ry
New grid distribution [1]: sub = 2
New grid distribution [2]: sub = 2
New grid distribution [3]: sub = 2
Setting up quadratic distribution...

        iscf     Eharris(eV)        E_KS(eV)     FreeEng(eV)     dDmax    Ef(eV) dHmax(eV)
   scf:    1   -39918.393859   -39918.399202   -39918.399202  0.000790 -3.846002  0.009098
   scf:    2   -39918.398569   -39918.399035   -39918.399035  0.000686 -3.846004  0.026015
   scf:    3   -39918.399285   -39918.399244   -39918.399244  0.000509 -3.846001  0.001536
   scf:    4   -39918.399249   -39918.399247   -39918.399247  0.000026 -3.845998  0.000891

SCF Convergence by DM+H criterion
max |DM_out - DM_in|         :     0.0000257839
max |H_out - H_in|      (eV) :     0.0008913895
SCF cycle converged after 4 iterations

Using DM_out to compute the final energy and forces
No. of atoms with KB's overlaping orbs in proc 0. Max # of overlaps:     105     231
System symmetry is of type slab but no DFTD3.Periodic list was found. Attempting to guess symmetry for D3.
Could not guess the right amount of periodicity directions for D3.
Enabling periodicity on all directions.

siesta: E_KS(eV) =           -39918.4013

siesta: Atomic forces (eV/Ang):
----------------------------------------
   Tot   -0.000932   -0.000808    0.000453
----------------------------------------
   Max    0.133980
   Res    0.030779    sqrt( Sum f_i^2 / 3N )
----------------------------------------
   Max    0.133983    constrained

Stress tensor Voigt[x,y,z,yz,xz,xy] (kbar):      -25.54      -25.56       -4.82       -0.00       -0.00        0.01
(Free)E + p*V (eV/cell)   -39769.6170
Target enthalpy (eV/cell)   -39918.4013

cgvc: Finished line minimization    5.  Mean atomic displacement =    0.0061

                     ====================================
                        Begin CG opt. move =     13
                     ====================================

outcell: Unit cell vectors (Ang):
       19.173802   -1.230000    0.000000
       10.652112   15.990000    0.000000
        0.000000    0.000000   40.000000

outcell: Cell vector modules (Ang)   :   19.213214   19.213214   40.000000
outcell: Cell angles (23,13,12) (deg):     90.0000     90.0000     60.0000
outcell: Cell volume (Ang**3)        :  12787.6480
<dSpData1D:S at geom step 13
  <sparsity:sparsity for geom step 13
    nrows_g=2196 nrows=54 sparsity=.0107 nnzs=51780, refcount: 7>
  <dData1D:(new from dSpData1D) n=51780, refcount: 1>
refcount: 1>
new_DM -- step:    14
Re-using DM from previous geometries...
Number of DMs in history: 1
 DM extrapolation coefficients: 
1   1.00000
New DM after history re-use:
<dSpData2D:SpM extrapolated using coords
  <sparsity:sparsity for geom step 13
    nrows_g=2196 nrows=54 sparsity=.0107 nnzs=51780, refcount: 9>
  <dData2D:(temp array for extrapolation) n=51780 m=1, refcount: 1>
refcount: 1>
No. of atoms with KB's overlaping orbs in proc 0. Max # of overlaps:     105     229

InitMesh: MESH = 180 x 180 x 432 = 13996800
InitMesh: Mesh cutoff (required, used) =   300.000   322.366 Ry
New grid distribution [1]: sub = 2
New grid distribution [2]: sub = 2
New grid distribution [3]: sub = 2
Setting up quadratic distribution...

        iscf     Eharris(eV)        E_KS(eV)     FreeEng(eV)     dDmax    Ef(eV) dHmax(eV)
   scf:    1   -39918.447114   -39918.414050   -39918.414050  0.003114 -3.860442  0.093083
   scf:    2   -39918.371885   -39918.403436   -39918.403436  0.008764 -3.860217  0.215902
   scf:    3   -39918.421405   -39918.417489   -39918.417489  0.006097 -3.860351  0.006498
   scf:    4   -39918.417603   -39918.417554   -39918.417554  0.000176 -3.860361  0.004211
   scf:    5   -39918.417615   -39918.417589   -39918.417589  0.000095 -3.860419  0.001322
   scf:    6   -39918.417597   -39918.417594   -39918.417594  0.000035 -3.860445  0.000470

SCF Convergence by DM+H criterion
max |DM_out - DM_in|         :     0.0000353637
max |H_out - H_in|      (eV) :     0.0004698813
SCF cycle converged after 6 iterations

Using DM_out to compute the final energy and forces
No. of atoms with KB's overlaping orbs in proc 0. Max # of overlaps:     105     229
System symmetry is of type slab but no DFTD3.Periodic list was found. Attempting to guess symmetry for D3.
Could not guess the right amount of periodicity directions for D3.
Enabling periodicity on all directions.

siesta: E_KS(eV) =           -39918.4042

siesta: Atomic forces (eV/Ang):
----------------------------------------
   Tot    0.001219   -0.000734    0.000155
----------------------------------------
   Max    0.182009
   Res    0.042972    sqrt( Sum f_i^2 / 3N )
----------------------------------------
   Max    0.182004    constrained

Stress tensor Voigt[x,y,z,yz,xz,xy] (kbar):      -25.56      -25.56       -4.80       -0.00       -0.00        0.00
(Free)E + p*V (eV/cell)   -39769.6384
Target enthalpy (eV/cell)   -39918.4042

                     ====================================
                        Begin CG opt. move =     14
                     ====================================

outcell: Unit cell vectors (Ang):
       19.173802   -1.230000    0.000000
       10.652112   15.990000    0.000000
        0.000000    0.000000   40.000000

outcell: Cell vector modules (Ang)   :   19.213214   19.213214   40.000000
outcell: Cell angles (23,13,12) (deg):     90.0000     90.0000     60.0000
outcell: Cell volume (Ang**3)        :  12787.6480
<dSpData1D:S at geom step 14
  <sparsity:sparsity for geom step 14
    nrows_g=2196 nrows=54 sparsity=.0107 nnzs=51786, refcount: 7>
  <dData1D:(new from dSpData1D) n=51786, refcount: 1>
refcount: 1>
new_DM -- step:    15
Re-using DM from previous geometries...
Number of DMs in history: 1
 DM extrapolation coefficients: 
1   1.00000
New DM after history re-use:
<dSpData2D:SpM extrapolated using coords
  <sparsity:sparsity for geom step 14
    nrows_g=2196 nrows=54 sparsity=.0107 nnzs=51786, refcount: 9>
  <dData2D:(temp array for extrapolation) n=51786 m=1, refcount: 1>
refcount: 1>
No. of atoms with KB's overlaping orbs in proc 0. Max # of overlaps:     105     231

InitMesh: MESH = 180 x 180 x 432 = 13996800
InitMesh: Mesh cutoff (required, used) =   300.000   322.366 Ry
New grid distribution [1]: sub = 2
New grid distribution [2]: sub = 2
New grid distribution [3]: sub = 2
Setting up quadratic distribution...

        iscf     Eharris(eV)        E_KS(eV)     FreeEng(eV)     dDmax    Ef(eV) dHmax(eV)
   scf:    1   -39918.385912   -39918.401580   -39918.401580  0.001965 -3.854289  0.038230
   scf:    2   -39918.394128   -39918.399707   -39918.399707  0.003638 -3.854443  0.087335
   scf:    3   -39918.402931   -39918.402192   -39918.402192  0.002503 -3.854331  0.002610
   scf:    4   -39918.402210   -39918.402202   -39918.402202  0.000048 -3.854324  0.001694
   scf:    5   -39918.402213   -39918.402208   -39918.402208  0.000039 -3.854301  0.000529

SCF Convergence by DM+H criterion
max |DM_out - DM_in|         :     0.0000392677
max |H_out - H_in|      (eV) :     0.0005293701
SCF cycle converged after 5 iterations

Using DM_out to compute the final energy and forces
No. of atoms with KB's overlaping orbs in proc 0. Max # of overlaps:     105     231
System symmetry is of type slab but no DFTD3.Periodic list was found. Attempting to guess symmetry for D3.
Could not guess the right amount of periodicity directions for D3.
Enabling periodicity on all directions.

siesta: E_KS(eV) =           -39918.4079

siesta: Atomic forces (eV/Ang):
----------------------------------------
   Tot    0.000463   -0.000942    0.000596
----------------------------------------
   Max    0.085468
   Res    0.020939    sqrt( Sum f_i^2 / 3N )
----------------------------------------
   Max    0.085468    constrained

Stress tensor Voigt[x,y,z,yz,xz,xy] (kbar):      -25.55      -25.56       -4.81       -0.00       -0.00        0.00
(Free)E + p*V (eV/cell)   -39769.6353
Target enthalpy (eV/cell)   -39918.4079

cgvc: Finished line minimization    6.  Mean atomic displacement =    0.0035

                     ====================================
                        Begin CG opt. move =     15
                     ====================================

outcell: Unit cell vectors (Ang):
       19.173802   -1.230000    0.000000
       10.652112   15.990000    0.000000
        0.000000    0.000000   40.000000

outcell: Cell vector modules (Ang)   :   19.213214   19.213214   40.000000
outcell: Cell angles (23,13,12) (deg):     90.0000     90.0000     60.0000
outcell: Cell volume (Ang**3)        :  12787.6480
<dSpData1D:S at geom step 15
  <sparsity:sparsity for geom step 15
    nrows_g=2196 nrows=54 sparsity=.0107 nnzs=51780, refcount: 7>
  <dData1D:(new from dSpData1D) n=51780, refcount: 1>
refcount: 1>
new_DM -- step:    16
Re-using DM from previous geometries...
Number of DMs in history: 1
 DM extrapolation coefficients: 
1   1.00000
New DM after history re-use:
<dSpData2D:SpM extrapolated using coords
  <sparsity:sparsity for geom step 15
    nrows_g=2196 nrows=54 sparsity=.0107 nnzs=51780, refcount: 9>
  <dData2D:(temp array for extrapolation) n=51780 m=1, refcount: 1>
refcount: 1>
No. of atoms with KB's overlaping orbs in proc 0. Max # of overlaps:     105     229

InitMesh: MESH = 180 x 180 x 432 = 13996800
InitMesh: Mesh cutoff (required, used) =   300.000   322.366 Ry
New grid distribution [1]: sub = 2
New grid distribution [2]: sub = 2
New grid distribution [3]: sub = 2
Setting up quadratic distribution...

        iscf     Eharris(eV)        E_KS(eV)     FreeEng(eV)     dDmax    Ef(eV) dHmax(eV)
[...]
(Free)E + p*V (eV/cell)   -39770.9089
Target enthalpy (eV/cell)   -39918.4954

                     ====================================
                        Begin CG opt. move =     76
                     ====================================

outcell: Unit cell vectors (Ang):
       19.173802   -1.230000    0.000000
       10.652112   15.990000    0.000000
        0.000000    0.000000   40.000000

outcell: Cell vector modules (Ang)   :   19.213214   19.213214   40.000000
outcell: Cell angles (23,13,12) (deg):     90.0000     90.0000     60.0000
outcell: Cell volume (Ang**3)        :  12787.6480
<dSpData1D:S at geom step 76
  <sparsity:sparsity for geom step 76
    nrows_g=2196 nrows=54 sparsity=.0106 nnzs=51031, refcount: 7>
  <dData1D:(new from dSpData1D) n=51031, refcount: 1>
refcount: 1>
new_DM -- step:    77
Re-using DM from previous geometries...
Number of DMs in history: 1
 DM extrapolation coefficients: 
1   1.00000
New DM after history re-use:
<dSpData2D:SpM extrapolated using coords
  <sparsity:sparsity for geom step 76
    nrows_g=2196 nrows=54 sparsity=.0106 nnzs=51031, refcount: 9>
  <dData2D:(temp array for extrapolation) n=51031 m=1, refcount: 1>
refcount: 1>
No. of atoms with KB's overlaping orbs in proc 0. Max # of overlaps:     103     227

InitMesh: MESH = 180 x 180 x 432 = 13996800
InitMesh: Mesh cutoff (required, used) =   300.000   322.366 Ry
New grid distribution [1]: sub = 2
New grid distribution [2]: sub = 2
New grid distribution [3]: sub = 2
Setting up quadratic distribution...

        iscf     Eharris(eV)        E_KS(eV)     FreeEng(eV)     dDmax    Ef(eV) dHmax(eV)
   scf:    1   -39918.487883   -39918.492918   -39918.492918  0.000884 -3.572242  0.008302
   scf:    2   -39918.492135   -39918.492714   -39918.492714  0.000840 -3.572302  0.026220
   scf:    3   -39918.493013   -39918.492971   -39918.492971  0.000627 -3.572260  0.001689
   scf:    4   -39918.492978   -39918.492976   -39918.492976  0.000060 -3.572264  0.000567

SCF Convergence by DM+H criterion
max |DM_out - DM_in|         :     0.0000599748
max |H_out - H_in|      (eV) :     0.0005671480
SCF cycle converged after 4 iterations

Using DM_out to compute the final energy and forces
No. of atoms with KB's overlaping orbs in proc 0. Max # of overlaps:     103     227
System symmetry is of type slab but no DFTD3.Periodic list was found. Attempting to guess symmetry for D3.
Could not guess the right amount of periodicity directions for D3.
Enabling periodicity on all directions.

siesta: E_KS(eV) =           -39918.4958

siesta: Atomic forces (eV/Ang):
----------------------------------------
   Tot    0.000352   -0.000056   -0.004020
----------------------------------------
   Max    0.008285
   Res    0.002391    sqrt( Sum f_i^2 / 3N )
----------------------------------------
   Max    0.008287    constrained

Stress tensor Voigt[x,y,z,yz,xz,xy] (kbar):      -25.67      -25.67       -4.14       -0.00        0.00        0.00
(Free)E + p*V (eV/cell)   -39770.8982
Target enthalpy (eV/cell)   -39918.4958

outcoor: Relaxed atomic coordinates (Ang):                  
    1.42028398    0.00066487   18.17219123   1       1  C
    5.68116360    0.00178583   18.22639989   1       2  C
    9.94181950   -0.00009716   18.25912140   1       3  C
   14.20215285   -0.00171569   18.21860307   1       4  C
   18.46280144   -0.00035737   18.17113753   1       5  C
    3.55025251    1.23160123   18.19791165   1       6  C
    7.81120373    1.23111171   18.25168219   1       7  C
   12.07168126    1.22891494   18.24851789   1       8  C
   16.33175134    1.22889117   18.19627552   1       9  C
   20.59280122    1.23087400   18.18594900   1      10  C
    5.68043385    2.46153744   18.23311346   1      11  C
    9.94140188    2.45987770   18.26176057   1      12  C
   14.20156049    2.45858041   18.23096922   1      13  C
   18.46180331    2.45978520   18.19770775   1      14  C
    3.54945294    3.69117814   18.21836948   1      15  C
    7.81109643    3.69073433   18.25878129   1      16  C
   12.07180630    3.68925839   18.25600335   1      17  C
   16.33154366    3.68912726   18.22477014   1      18  C
   20.59221153    3.69047682   18.22033084   1      19  C
    5.68032160    4.92093743   18.24904631   1      20  C
    9.94182496    4.92000315   18.26452583   1      21  C
   14.20180154    4.91926144   18.24924439   1      22  C
   18.46168341    4.91983853   18.23636157   1      23  C
   22.72325919    4.92050538   18.24644030   1      24  C
    7.81160588    6.15021131   18.26228368   1      25  C
   12.07237819    6.14955215   18.25990344   1      26  C
   16.33198667    6.14953662   18.25272255   1      27  C
   20.59257744    6.14999099   18.25568285   1      28  C
    5.68097934    7.38000424   18.25964242   1      29  C
    9.94280973    7.37980679   18.25718533   1      30  C
   14.20277766    7.37986771   18.25644243   1      31  C
   18.46256708    7.37992964   18.26604493   1      32  C
   22.72404133    7.37971962   18.26586582   1      33  C
    7.81244872    8.60959180   18.25295837   1      34  C
   12.07341627    8.60998780   18.24682667   1      35  C
   16.33300155    8.61039749   18.26336511   1      36  C
   20.59358057    8.60972731   18.27567531   1      37  C
   24.85558794    8.60910938   18.25554201   1      38  C
    9.94342026    9.83957311   18.23305804   1      39  C
   14.20365853    9.84058352   18.24382732   1      40  C
   18.46349014    9.84034553   18.27540307   1      41  C
   22.72478241    9.83906917   18.26653928   1      42  C
    7.81292639   11.06890129   18.22817897   1      43  C
   12.07400284   11.07032069   18.21789247   1      44  C
   16.33387426   11.07105819   18.25477418   1      45  C
   20.59431283   11.06967609   18.27520640   1      46  C
   24.85578937   11.06847220   18.23727088   1      47  C
    9.94340401   12.29937837   18.19909873   1      48  C
   14.20404417   12.30111875   18.22000357   1      49  C
   18.46402431   12.30077524   18.26629748   1      50  C
   22.72497436   12.29871334   18.25565873   1      51  C
   26.98616524   12.29849985   18.19971481   1      52  C
   12.07352099   13.53047470   18.18735613   1      53  C
   16.33381768   13.53147770   18.23680929   1      54  C
   20.59426719   13.52977321   18.26538745   1      55  C
   24.85512860   13.52824966   18.22073282   1      56  C
    9.94244734   14.75945993   18.17318530   1      57  C
   14.20337693   14.76153773   18.19871876   1      58  C
   18.46378920   14.76101862   18.25398492   1      59  C
   22.72442069   14.75871311   18.24690193   1      60  C
   26.98496811   14.75854125   18.18641455   1      61  C
    2.84059458    0.00135358   18.18564685   1      62  C
    7.10128252    0.00123139   18.24442586   1      63  C
   11.36183858   -0.00118228   18.25269722   1      64  C
   15.62222419   -0.00165035   18.19757844   1      65  C
   19.88322933    0.00045403   18.17146377   1      66  C
    4.97046253    1.23169242   18.21750555   1      67  C
    9.23126814    1.23002750   18.25958255   1      68  C
   13.49172326    1.22820884   18.23237919   1      69  C
   17.75204679    1.22941366   18.18456964   1      70  C
    2.83943351    2.46136550   18.19796397   1      71  C
    7.10066736    2.46113928   18.24864134   1      72  C
   11.36148818    2.45912931   18.25674405   1      73  C
   15.62158251    2.45879030   18.21559955   1      74  C
   19.88220951    2.46054940   18.19847163   1      75  C
    4.96987687    3.69140790   18.23334789   1      76  C
    9.23139431    3.69018876   18.26365232   1      77  C
   13.49184399    3.68886834   18.24617983   1      78  C
   17.75174737    3.68959738   18.21793624   1      79  C
   22.01277669    3.69095184   18.22769420   1      80  C
    7.10080703    4.92076126   18.25820093   1      81  C
   11.36201294    4.91951213   18.26182170   1      82  C
   15.62184462    4.91920991   18.24231579   1      83  C
   19.88214216    4.92026781   18.23743478   1      84  C
    4.97005951    6.15079230   18.25265837   1      85  C
    9.23207971    6.15015854   18.26346790   1      86  C
   13.49251914    6.14960179   18.25672698   1      87  C
   17.75222514    6.14987158   18.25252973   1      88  C
   22.01315308    6.15034809   18.25717682   1      89  C
    7.10159184    7.38018963   18.26006914   1      90  C
   11.36314705    7.37986489   18.25576557   1      91  C
   15.62293096    7.37993700   18.25868669   1      92  C
   19.88294471    7.38004098   18.26786346   1      93  C
   24.14468966    7.37978429   18.26249996   1      94  C
    9.23296621    8.60977622   18.24833939   1      95  C
   13.49363749    8.61019094   18.24980205   1      96  C
   17.75324150    8.61021183   18.27073417   1      97  C
   22.01401501    8.60969523   18.27168754   1      98  C
    7.10237126    9.83940677   18.24592274   1      99  C
   11.36383301    9.84010880   18.23193000   1     100  C
   15.62378489    9.84078365   18.25498995   1     101  C
   19.88377335    9.83991924   18.27809605   1     102  C
   24.14522004    9.83895406   18.25417352   1     103  C
    9.23334090   11.06936200   18.21891902   1     104  C
   13.49421407   11.07071012   18.22624486   1     105  C
   17.75390483   11.07069578   18.26735376   1     106  C
   22.01457307   11.06910840   18.26742425   1     107  C
   26.27618648   11.06856713   18.22028875   1     108  C
   11.36381128   12.30007742   18.19864898   1     109  C
   15.62409249   12.30118422   18.23700393   1     110  C
   19.88413869   12.29989250   18.27135807   1     111  C
   24.14515653   12.29835297   18.23753665   1     112  C
    9.23276501   13.52906606   18.18698664   1     113  C
   13.49378120   13.53105074   18.19954511   1     114  C
   17.75385883   13.53092350   18.25338038   1     115  C
   22.01443041   13.52878167   18.25715295   1     116  C
   26.27531925   13.52825668   18.19940831   1     117  C
   11.36284782   14.76016508   18.17308620   1     118  C
   15.62350810   14.76157937   18.21931119   1     119  C
   19.88388615   14.76002579   18.26076012   1     120  C
   24.14455018   14.75813570   18.22856212   1     121  C
   28.40532618   14.75916324   18.17224768   1     122  C
    3.67943970    0.76464624   21.79509226   1     123  C
    7.90497532    0.22071833   21.74762695   1     124  C
   12.13097432   -0.32134862   21.75582969   1     125  C
   16.35668843   -0.86557219   21.80422922   1     126  C
    1.72438578    2.25769441   21.80633309   1     127  C
    5.94963331    1.71230469   21.76235406   1     128  C
   10.17533363    1.16969210   21.73867134   1     129  C
   14.40141773    0.62683303   21.77720979   1     130  C
   18.62742089    0.08111647   21.81568224   1     131  C
    3.99440661    3.20480312   21.77824149   1     132  C
    8.21953018    2.66084108   21.73587659   1     133  C
   12.44575995    2.11841691   21.74704785   1     134  C
   16.67219293    1.57410060   21.79363312   1     135  C
    6.26395085    4.15262240   21.74704034   1     136  C
   10.48964381    3.60962570   21.72863604   1     137  C
   14.71631632    3.06635806   21.76223439   1     138  C
   18.94275834    2.52094073   21.79482536   1     139  C
    4.30857235    5.64520191   21.75772087   1     140  C
    8.53347387    5.10111010   21.72801101   1     141  C
   12.75995966    4.55790971   21.73639124   1     142  C
   16.98692443    4.01353686   21.77004490   1     143  C
   21.21286455    3.46776183   21.78037904   1     144  C
    6.57758156    6.59334164   21.73902591   1     145  C
   10.80321748    6.04947838   21.72796505   1     146  C
   15.03044535    5.50547515   21.74627423   1     147  C
   19.25724020    4.96049308   21.76547478   1     148  C
    8.84678877    7.54140129   21.73659292   1     149  C
   13.07342037    6.99720461   21.73710085   1     150  C
   17.30075661    6.45279192   21.74899595   1     151  C
   21.52672778    5.90794997   21.75503909   1     152  C
    6.89098872    9.03390324   21.74870971   1     153  C
   11.11652975    8.48912671   21.74620895   1     154  C
   15.34377350    7.94458729   21.74279341   1     155  C
   19.57063682    7.40023119   21.74491358   1     156  C
   23.79576570    6.85581167   21.74612023   1     157  C
    9.16039345    9.98156915   21.76325782   1     158  C
   13.38691858    9.43638120   21.75505286   1     159  C
   17.61417685    8.89203283   21.74126842   1     160  C
   21.84012144    8.34826122   21.74346988   1     161  C
   11.43049442   10.92852816   21.77777677   1     162  C
   15.65744318   10.38359155   21.75400763   1     163  C
   19.88410850    9.84010457   21.73987359   1     164  C
   24.10923409    9.29655276   21.75185617   1     165  C
    9.47476567   12.42140580   21.79528452   1     166  C
   13.70104083   11.87543871   21.77925224   1     167  C
   17.92780994   11.33137130   21.74713272   1     168  C
   22.15371102   10.78853638   21.74741321   1     169  C
   26.37858733   10.24428708   21.77250257   1     170  C
   11.74538387   13.36804672   21.80556279   1     171  C
   15.97179340   12.82277345   21.76745614   1     172  C
   20.19809254   12.27990200   21.74448357   1     173  C
   24.42336935   11.73683291   21.76848478   1     174  C
   14.01619665   14.31487079   21.79549947   1     175  C
   18.24231307   13.77096933   21.75155149   1     176  C
   22.46810969   13.22874724   21.75552831   1     177  C
   26.69334241   12.68446491   21.79588730   1     178  C
   12.06089217   15.80785733   21.81712262   1     179  C
   16.28670482   15.26238869   21.77135548   1     180  C
   20.51263847   14.71979214   21.74596954   1     181  C
   24.73828081   14.17700228   21.77960960   1     182  C
   28.96389647   13.63126491   21.81570709   1     183  C
    0.86227097    1.12890471   21.81701906   1     184  C
    5.08788645    0.58318549   21.77713513   1     185  C
    9.31349832    0.04030812   21.74259602   1     186  C
   13.53943624   -0.50221051   21.77143616   1     187  C
   17.76528872   -1.04769389   21.81541951   1     188  C
    3.13292144    2.07569899   21.79581297   1     189  C
    7.35810182    1.53143772   21.74769714   1     190  C
   11.58396796    0.98920317   21.74617209   1     191  C
   15.81003210    0.44527496   21.79398389   1     192  C
    5.40282587    3.02323510   21.76260335   1     193  C
    9.62809129    2.48023961   21.73215434   1     194  C
   13.85439999    1.93737680   21.76250095   1     195  C
   18.08089007    1.39206210   21.80411254   1     196  C
    3.44760697    4.51588775   21.77326110   1     197  C
    7.67244286    3.97159189   21.73498194   1     198  C
   11.89835390    3.42873927   21.73587398   1     199  C
   16.12508875    2.88466620   21.77680303   1     200  C
   20.35142862    2.33869131   21.79595337   1     201  C
    5.71706019    5.46368211   21.74709767   1     202  C
    9.94215184    4.92006250   21.72523820   1     203  C
   14.16879422    4.37657409   21.74740425   1     204  C
   18.39571195    3.83163123   21.77790147   1     205  C
    7.98613181    6.41190528   21.73264393   1     206  C
   12.21206278    5.86803897   21.73155385   1     207  C
   16.43933202    5.32379894   21.75481475   1     208  C
   20.66587237    4.77861428   21.76711222   1     209  C
    6.03041212    7.90433045   21.74340016   1     210  C
   10.25549643    7.35990801   21.73479289   1     211  C
   14.48242360    6.81548673   21.74069499   1     212  C
   18.70962243    6.27091610   21.75188845   1     213  C
   22.93524503    5.72617022   21.75246953   1     214  C
    8.29956317    8.85223068   21.74867105   1     215  C
   12.52543764    8.30735493   21.74468316   1     216  C
   16.75275127    7.76293463   21.74286288   1     217  C
   20.97934829    7.21871208   21.74644715   1     218  C
   10.56908252    9.79958745   21.76268849   1     219  C
   14.79580998    9.25462474   21.74921462   1     220  C
   19.02297914    8.71069159   21.74018883   1     221  C
   23.24863282    8.16685045   21.74580033   1     222  C
    8.61331256   11.29240335   21.77855277   1     223  C
   12.83928671   10.74653903   21.77152988   1     224  C
   17.06626046   10.20214842   21.74587173   1     225  C
   21.29271686    9.65898569   21.74176740   1     226  C
   25.51767939    9.11492674   21.75745622   1     227  C
   10.88347828   12.23916912   21.79526531   1     228  C
   15.10984142   11.69373704   21.76741943   1     229  C
   19.33652847   11.15052282   21.74226604   1     230  C
   23.56216945   10.60747268   21.75535843   1     231  C
   13.15408056   13.18598015   21.79553277   1     232  C
   17.38046373   12.64172067   21.75485295   1     233  C
   21.60666575   12.09930067   21.74817774   1     234  C
   25.83183906   11.55532926   21.78018321   1     235  C
   11.19877768   14.67899694   21.81653335   1     236  C
   15.42479414   14.13329205   21.77895241   1     237  C
   19.65090454   13.59041843   21.74635288   1     238  C
   23.87660677   13.04780265   21.76831090   1     239  C
   28.10191045   12.50240733   21.80521878   1     240  C
   13.46953659   15.62570119   21.80586206   1     241  C
   17.69520225   15.08145316   21.75643401   1     242  C
   21.92117781   14.53942035   21.75144126   1     243  C
   26.14676833   13.99552360   21.79548986   1     244  C

siesta: Program's energy decomposition (eV):
siesta: Ebs     =    -12950.995300
siesta: Eions   =     68847.456686
siesta: Ena     =     15202.710843
siesta: Ekin    =     27730.044997
siesta: Enl     =     -1406.956731
siesta: Eso     =         0.000000
siesta: Edftu   =         0.000000
siesta: DEna    =      1598.017160
siesta: DUscf   =        81.255370
siesta: DUext   =         0.000000
siesta: Ex      =    -13014.761040
siesta: Ec      =     -1237.541425
siesta: Exc     =    -14252.302465
siesta: EbV     =         0.000000
siesta: eta*DQ  =         0.000000
siesta: Emadel  =         0.000000
siesta: Emeta   =         0.000000
siesta: Emolmec =         0.000000
siesta: Ekinion =         0.000000
siesta: Eharris =    -39918.492978
siesta: Etot    =    -39918.495792
siesta: FreeEng =    -39918.495792

siesta: Final energy (eV):
siesta:  Band Struct. =  -12950.995300
siesta:       Kinetic =   27730.044997
siesta:       Hartree =  646001.522241
siesta:         Edftu =       0.000000
siesta:       Eso     =       0.000000
siesta:    Ext. field =       0.000000
siesta:         Exch. =  -13014.761040
siesta:         Corr. =   -1237.541425
siesta:     Bulk bias =       0.000000
siesta:   Exch.-corr. =  -14252.302465
siesta:  Ion-electron =-1317102.215284
siesta:       Ion-ion =  617728.262999
siesta:       Ekinion =       0.000000
siesta: D3 dispersion =     -23.808280
siesta:         Total =  -39918.495792
siesta:         Fermi =      -3.572264

siesta: Stress tensor (static) (eV/Ang**3):
siesta:    -0.016020    0.000002    0.000000
siesta:     0.000002   -0.016022   -0.000000
siesta:     0.000000   -0.000000   -0.002585

siesta: Cell volume =      12787.647974 Ang**3

siesta: Pressure (static):
siesta:                Solid            Molecule  Units
siesta:           0.00012571          0.00012564  Ry/Bohr**3
siesta:           0.01154220          0.01153594  eV/Ang**3
siesta:          18.49264571         18.48261210  kBar
(Free)E+ p_basis*V_orbitals  =      -39771.450175
(Free)Eharris+ p_basis*V_orbitals  =      -39771.447361

siesta: Electric dipole (a.u.)  =    0.000000    0.000000   -0.000071
siesta: Electric dipole (Debye) =    0.000000    0.000000   -0.000180

cite: Please see "Graphene.bib" for an exhaustive BiBTeX file.
cite: Please clearly indicate Siesta version in published work: 5.0.0-alpha-112-g6e4f53aee-dirty
cite: This calculation has made use of the following articles
cite: which are encouraged to be cited in a published work.
        Primary SIESTA paper
          DOI: www.doi.org/10.1088/0953-8984/14/11/302
 
 
>> End of run:   1-DEC-2024  14:53:42
Job completed
