Siesta Version  : 5.0.0-alpha-112-g6e4f53aee-dirty
Architecture    : ----
Compiler version: Intel-2021.8.0.20221119
Compiler flags  : -O2 -ip -xHost -fp-model=strict -prec-div -prec-sqrt
PP flags        : ----
Libraries       : ----
Parallelisations: MPI
GEMM3M support
NetCDF support
NetCDF-4 support

Runtime information:
* Directory : /n/holylabs/LABS/kaxiras_lab/axzhu/projects/AM207-final-project/N_7/PSO-2params
* Running on 64 nodes in parallel.
>> Start of run:  30-NOV-2024  21:20:58

                           *********************** 
                           *  WELCOME TO SIESTA  * 
                           *********************** 

reinit: Reading from standard input
reinit: Dumping input in INPUT_TMP.89284
************************** Dump of input data file ****************************
#################################
#				#
#	Basic Information	#
#	      			#
#################################
SystemName      Graphene
SystemLabel     Graphene
#########################################
#					#
#	Structural Information		#
#					#
#########################################
%include structure.fdf
#################################
#                               #
#       DFT Parameters          #
#                               #
#################################
SolutionMethod diagon           # Method of solving system. Can change to OrderN, transiesta, etc.
#Diag.Algorithm MRRR
#NumberOfEigenStates -20 # this will include first 10 conduction bands
XC.Functional   GGA
XC.Authors      PBE
DFTD3 true
Spin non-polarized
# This is causing memory issues, keep it low for now.
Mesh.Cutoff 300 Ry              # Cut off plane waves with kinetic energy higher than this.
MaxSCFIterations 300            # Max number of iterations in the SCF loop.
DM.UseSaveDM true
MinSCFIterations       3
SCF.DM.Tolerance       0.0001
SCF.Mixer.Weight       0.10
SCF.Mixer.History      12
SCF.Mix.First          true
#################################
#                               #
#             Basis             #
#                               #
#################################
#PAO.BasisSize   DZP
PAO.Basis < basis.fdf
#########################################
#					#
#	k-points, Bands, DOS		#
#		  	 		#
#########################################
%block kgrid_Monkhorst_Pack
   1  0  0  0.0
   0  1  0  0.0
   0  0  1  0.0
%endblock kgrid_Monkhorst_Pack
#BandLinesScale ReciprocalLatticeVectors
#%block BandLines
#1   0.6666666667  0.3333333333  0.0000000000  K
#10  0.0000000000  0.0000000000  0.0000000000  Gamma
#10  0.5000000000  0.0000000000  0.0000000000  M
#10  0.6666666667  0.3333333333  0.0000000000  K
#%endblock BandLines
# Local density of states (LDOS)
# %block LocalDensityOfStates
# EF 8.40 8.50 eV
# %endblock LocalDensityOfStates
#########################################
#                                       #
#             Wavefunctions             #
#                                       #
#########################################
#WaveFuncKPointsScale ReciprocalLatticeVectors
#%block WaveFuncKPoints
#0.666 0.333 0.000 from 4375 to 4378 # K wavefuncs 4375 to 4378
#0.000 0.000 0.000 from 4375 to 4378 # Gamma wavefuncs 4375 to 4378
#0.500 0.000 0.000 from 4375 to 4378 # M wavefuncs 4375 to 4378
#%endblock WaveFuncKPoints
#WriteDenchar T
#########################################
#                                       #
#       Geometry Optimisation           #
#                                       #
#########################################
MD.UseSaveXV true
MD.TypeOfRun           CG                  # Conjugate Gradient
MD.NumCGsteps          200                 # Max number of steps
MD.MaxForceTol         0.01    eV/Ang      # 10 meV/Ang
MD.VariableCell        false               # Don't relax cell
MD.MaxCGDispl          0.5 Bohr            # Maximum displacement of any atom
# Fix COM in Z direction only
%block Geometry.Constraints
 center all 0.0 0.0 1.0
%endblock Geometry.Constraints
************************** End of input data file *****************************

reinit: -----------------------------------------------------------------------
reinit: System Name: Graphene
reinit: -----------------------------------------------------------------------
reinit: System Label: Graphene
reinit: -----------------------------------------------------------------------

initatom: Reading input for the pseudopotentials and atomic orbitals ----------
Species number:   1 Atomic number:    6 Label: C
 

---- Processing specs for species: C
Ground state valence configuration:   2s02  2p02
Reading pseudopotential information in PSML from:
  C.psml
PSML file version: 1.1
Using libxc ids:  101 130
GGA--PBE XC_GGA_X_PBE--XC_GGA_C_PBE pb
 Using ATOM defaults for log grid...
PSML uuid: 297821e0-be41-11e7-6802-e1ff7dfff095

---- Pseudopotential check for C 

Pseudized shells:
2s( 2.00) rc: 1.20
2p( 2.00) rc: 1.26
Valence configuration for ps generation: 2s:2p: Total charge:   4.000000
For C, standard SIESTA heuristics set lmxkb to 3
 (one more than the basis l, including polarization orbitals).
Use PS.lmax or PS.KBprojectors blocks to override.
C pseudopotential only contains V_ls up to l=1 -- lmxkb reset.

<basis_specs>
===============================================================================
C                    Z=   6    Mass=  12.011        Charge= 0.99941    
Lmxo=2 Lmxkb= 1    BasisType=split      Semic=F
L=0  Nsemic=0  Cnfigmx=2
          i=1  nzeta=1  polorb=0  (2s)
            splnorm:   0.15000    
               vcte:    132.57    
               rinn:    4.5256    
               qcoe:    0.0000    
               qyuk:    0.0000    
               qwid:   0.10000E-01
                rcs:    6.0009    
            lambdas:    1.0000    
L=1  Nsemic=0  Cnfigmx=2
          i=1  nzeta=1  polorb=0  (2p)
            splnorm:   0.15000    
               vcte:    6.0639    
               rinn:    6.0646    
               qcoe:    0.0000    
               qyuk:    0.0000    
               qwid:   0.10000E-01
                rcs:    6.7108    
            lambdas:    1.0000    
L=2  Nsemic=0  Cnfigmx=3
          i=1  nzeta=1  polorb=0  (3d)
            splnorm:   0.15000    
               vcte:    14.478    
               rinn:    4.3208    
               qcoe:    0.0000    
               qyuk:    0.0000    
               qwid:   0.10000E-01
                rcs:    6.2254    
            lambdas:    1.0000    
-------------------------------------------------------------------------------
L=0  Nkbl=1  erefs: 0.17977+309
L=1  Nkbl=1  erefs: 0.17977+309
===============================================================================
</basis_specs>

atom: Called for C                     (Z =   6)
NOTE: C pseudopotential has channels up to l= 1
NOTE: PAOs with higher l will be generated with V_local

read_vps: Pseudopotential generation method:
read_vps: ONCVPSP-3.Hamann's oncvpsp                        
Valence charge in pseudo generation:    4.00000

read_vps: Pseudopotential includes a core correction:
read_vps: Pseudo-core for xc-correction

xc_check: Exchange-correlation functional:
xc_check: GGA Perdew, Burke & Ernzerhof 1996
Got Vlocal (oncv-fit) from psml data
Choosing vlocal chloc cutoff:  4.139772
qtot up to nchloc:    3.99998844
atom: Maximum radius for chlocal:    4.13977
atom: Maximum radius for r*vlocal+2*Zval:    4.13977
Reading KB projs from C psml data
Using scalar-relativistic projectors in PSML file

PSML: Kleinman-Bylander projectors: 
   l= 0   rc=  1.231096   Ekb= 12.963096
   l= 0   rc=  1.231096   Ekb=  0.771007
   l= 1   rc=  1.294237   Ekb= -8.399923
   l= 1   rc=  1.294237   Ekb= -1.755033

PSML: Total number of  Kleinman-Bylander projectors:   8
atom: -------------------------------------------------------------------------

atom: SANKEY-TYPE ORBITALS:

atom: basis set generated (by rescaling the valence charge)
atom: for a cation of charge   0.9994

SPLIT: Orbitals with angular momentum L= 0

SPLIT: Basis orbitals for state 2s

   izeta = 1
                 lambda =    1.000000
                     rc =    6.099293
                 energy =   -2.079355
                kinetic =    1.090115
    potential(screened) =   -3.169470
       potential(ionic) =   -5.727963

SPLIT: Orbitals with angular momentum L= 1

SPLIT: Basis orbitals for state 2p

   izeta = 1
                 lambda =    1.000000
                     rc =    6.740804
                 energy =   -1.441657
                kinetic =    3.222058
    potential(screened) =   -4.663715
       potential(ionic) =   -7.206130
*Note: V_local used for l= 2

** Using vlocal for PAOs with L= 2

SPLIT: Orbitals with angular momentum L= 2

SPLIT: Basis orbitals for state 3d

   izeta = 1
                 lambda =    1.000000
                     rc =    6.253707
                 energy =    0.017329
                kinetic =    1.197074
    potential(screened) =   -1.179745
       potential(ionic) =   -2.838380
atom: Total number of Sankey-type orbitals:  9

atm_pop: Valence configuration (for local Pseudopot. screening):
 2s( 2.00)                                                            
 2p( 2.00)                                                            
 3d( 0.00)                                                            
Vna: chval, zval:    4.00000   4.00000

Vna:  Cut-off radius for the neutral-atom potential:   6.740804
comcore: Pseudo-core radius Rcore=  1.682861

atom: _________________________________________________________________________

prinput: Basis input 

PAO.BasisType split     

%block ChemicalSpeciesLabel
    1    6 C                       # Species index, atomic number, species label
%endblock ChemicalSpeciesLabel

%block PAO.Basis                 # Define Basis set
# WARNING: This information might be incomplete!
C                     3   0.999            # Label, l-shells, ionic net charge
 n=2   0   1                         # n, l, Nzeta 
   6.099   
   1.000   
 n=2   1   1                         # n, l, Nzeta 
   6.741   
   1.000   
 n=3   2   1                         # n, l, Nzeta 
   6.254   
   1.000   
%endblock PAO.Basis

prinput: ----------------------------------------------------------------------

Dumping basis to NetCDF file C.ion.nc
coor:   Atomic-coordinates input format  =     Cartesian coordinates
coor:                                          (in Angstroms)

siesta: WARNING: XV file not found

siesta: Atomic coordinates (Bohr) and species
siesta:      2.68394   0.00000  34.55471  1        1
siesta:     10.73577   0.00000  34.55471  1        2
siesta:     18.78760   0.00000  34.55471  1        3
siesta:     26.83943   0.00000  34.55471  1        4
siesta:     34.89126   0.00000  34.55471  1        5
siesta:     42.94309   0.00000  34.55471  1        6
siesta:     50.99492   0.00000  34.55471  1        7
siesta:      6.70986   2.32436  34.55471  1        8
siesta:     14.76169   2.32436  34.55471  1        9
siesta:     22.81352   2.32436  34.55471  1       10
siesta:     30.86535   2.32436  34.55471  1       11
siesta:     38.91718   2.32436  34.55471  1       12
siesta:     46.96901   2.32436  34.55471  1       13
siesta:     55.02084   2.32436  34.55471  1       14
siesta:     10.73577   4.64873  34.55471  1       15
siesta:     18.78760   4.64873  34.55471  1       16
siesta:     26.83943   4.64873  34.55471  1       17
siesta:     34.89126   4.64873  34.55471  1       18
siesta:     42.94309   4.64873  34.55471  1       19
siesta:     50.99492   4.64873  34.55471  1       20
siesta:      6.70986   6.97309  34.55471  1       21
siesta:     14.76169   6.97309  34.55471  1       22
siesta:     22.81352   6.97309  34.55471  1       23
siesta:     30.86535   6.97309  34.55471  1       24
siesta:     38.91718   6.97309  34.55471  1       25
siesta:     46.96901   6.97309  34.55471  1       26
siesta:     55.02084   6.97309  34.55471  1       27
siesta:     10.73577   9.29745  34.55471  1       28
siesta:     18.78760   9.29745  34.55471  1       29
siesta:     26.83943   9.29745  34.55471  1       30
siesta:     34.89126   9.29745  34.55471  1       31
siesta:     42.94309   9.29745  34.55471  1       32
siesta:     50.99492   9.29745  34.55471  1       33
siesta:     59.04675   9.29745  34.55471  1       34
siesta:     14.76169  11.62182  34.55471  1       35
siesta:     22.81352  11.62182  34.55471  1       36
siesta:     30.86535  11.62182  34.55471  1       37
siesta:     38.91718  11.62182  34.55471  1       38
siesta:     46.96901  11.62182  34.55471  1       39
siesta:     55.02084  11.62182  34.55471  1       40
siesta:     10.73577  13.94618  34.55471  1       41
siesta:     18.78760  13.94618  34.55471  1       42
siesta:     26.83943  13.94618  34.55471  1       43
siesta:     34.89126  13.94618  34.55471  1       44
siesta:     42.94309  13.94618  34.55471  1       45
siesta:     50.99492  13.94618  34.55471  1       46
siesta:     59.04675  13.94618  34.55471  1       47
siesta:     14.76169  16.27054  34.55471  1       48
siesta:     22.81352  16.27054  34.55471  1       49
siesta:     30.86535  16.27054  34.55471  1       50
siesta:     38.91718  16.27054  34.55471  1       51
siesta:     46.96901  16.27054  34.55471  1       52
siesta:     55.02084  16.27054  34.55471  1       53
siesta:     63.07267  16.27054  34.55471  1       54
siesta:     18.78760  18.59491  34.55471  1       55
siesta:     26.83943  18.59491  34.55471  1       56
siesta:     34.89126  18.59491  34.55471  1       57
siesta:     42.94309  18.59491  34.55471  1       58
siesta:     50.99492  18.59491  34.55471  1       59
siesta:     59.04675  18.59491  34.55471  1       60
siesta:     14.76169  20.91927  34.55471  1       61
siesta:     22.81352  20.91927  34.55471  1       62
siesta:     30.86535  20.91927  34.55471  1       63
siesta:     38.91718  20.91927  34.55471  1       64
siesta:     46.96901  20.91927  34.55471  1       65
siesta:     55.02084  20.91927  34.55471  1       66
siesta:     63.07267  20.91927  34.55471  1       67
siesta:     18.78760  23.24363  34.55471  1       68
siesta:     26.83943  23.24363  34.55471  1       69
siesta:     34.89126  23.24363  34.55471  1       70
siesta:     42.94309  23.24363  34.55471  1       71
siesta:     50.99492  23.24363  34.55471  1       72
siesta:     59.04675  23.24363  34.55471  1       73
siesta:     67.09858  23.24363  34.55471  1       74
siesta:     22.81352  25.56799  34.55471  1       75
siesta:     30.86535  25.56799  34.55471  1       76
siesta:     38.91718  25.56799  34.55471  1       77
siesta:     46.96901  25.56799  34.55471  1       78
siesta:     55.02084  25.56799  34.55471  1       79
siesta:     63.07267  25.56799  34.55471  1       80
siesta:     18.78760  27.89236  34.55471  1       81
siesta:     26.83943  27.89236  34.55471  1       82
siesta:     34.89126  27.89236  34.55471  1       83
siesta:     42.94309  27.89236  34.55471  1       84
siesta:     50.99492  27.89236  34.55471  1       85
siesta:     59.04675  27.89236  34.55471  1       86
siesta:     67.09858  27.89236  34.55471  1       87
siesta:     22.81352  30.21672  34.55471  1       88
siesta:     30.86535  30.21672  34.55471  1       89
siesta:     38.91718  30.21672  34.55471  1       90
siesta:     46.96901  30.21672  34.55471  1       91
siesta:     55.02084  30.21672  34.55471  1       92
siesta:     63.07267  30.21672  34.55471  1       93
siesta:     71.12450  30.21672  34.55471  1       94
siesta:     26.83943  32.54108  34.55471  1       95
siesta:     34.89126  32.54108  34.55471  1       96
siesta:     42.94309  32.54108  34.55471  1       97
siesta:     50.99492  32.54108  34.55471  1       98
siesta:     59.04675  32.54108  34.55471  1       99
siesta:     67.09858  32.54108  34.55471  1      100
siesta:     22.81352  34.86545  34.55471  1      101
siesta:     30.86535  34.86545  34.55471  1      102
siesta:     38.91718  34.86545  34.55471  1      103
siesta:     46.96901  34.86545  34.55471  1      104
siesta:     55.02084  34.86545  34.55471  1      105
siesta:     63.07267  34.86545  34.55471  1      106
siesta:     71.12450  34.86545  34.55471  1      107
siesta:     26.83943  37.18981  34.55471  1      108
siesta:     34.89126  37.18981  34.55471  1      109
siesta:     42.94309  37.18981  34.55471  1      110
siesta:     50.99492  37.18981  34.55471  1      111
siesta:     59.04675  37.18981  34.55471  1      112
siesta:     67.09858  37.18981  34.55471  1      113
siesta:     75.15041  37.18981  34.55471  1      114
siesta:     30.86535  39.51417  34.55471  1      115
siesta:     38.91718  39.51417  34.55471  1      116
siesta:     46.96901  39.51417  34.55471  1      117
siesta:     55.02084  39.51417  34.55471  1      118
siesta:     63.07267  39.51417  34.55471  1      119
siesta:     71.12450  39.51417  34.55471  1      120
siesta:     26.83943  41.83854  34.55471  1      121
siesta:     34.89126  41.83854  34.55471  1      122
siesta:     42.94309  41.83854  34.55471  1      123
siesta:     50.99492  41.83854  34.55471  1      124
siesta:     59.04675  41.83854  34.55471  1      125
siesta:     67.09858  41.83854  34.55471  1      126
siesta:     75.15041  41.83854  34.55471  1      127
siesta:      5.36789   0.00000  34.55471  1      128
siesta:     13.41972   0.00000  34.55471  1      129
siesta:     21.47155   0.00000  34.55471  1      130
siesta:     29.52338   0.00000  34.55471  1      131
siesta:     37.57521   0.00000  34.55471  1      132
siesta:     45.62704   0.00000  34.55471  1      133
siesta:     53.67887   0.00000  34.55471  1      134
siesta:      9.39380   2.32436  34.55471  1      135
siesta:     17.44563   2.32436  34.55471  1      136
siesta:     25.49746   2.32436  34.55471  1      137
siesta:     33.54929   2.32436  34.55471  1      138
siesta:     41.60112   2.32436  34.55471  1      139
siesta:     49.65295   2.32436  34.55471  1      140
siesta:      5.36789   4.64873  34.55471  1      141
siesta:     13.41972   4.64873  34.55471  1      142
siesta:     21.47155   4.64873  34.55471  1      143
siesta:     29.52338   4.64873  34.55471  1      144
siesta:     37.57521   4.64873  34.55471  1      145
siesta:     45.62704   4.64873  34.55471  1      146
siesta:     53.67887   4.64873  34.55471  1      147
siesta:      9.39380   6.97309  34.55471  1      148
siesta:     17.44563   6.97309  34.55471  1      149
siesta:     25.49746   6.97309  34.55471  1      150
siesta:     33.54929   6.97309  34.55471  1      151
siesta:     41.60112   6.97309  34.55471  1      152
siesta:     49.65295   6.97309  34.55471  1      153
siesta:     57.70478   6.97309  34.55471  1      154
siesta:     13.41972   9.29745  34.55471  1      155
siesta:     21.47155   9.29745  34.55471  1      156
siesta:     29.52338   9.29745  34.55471  1      157
siesta:     37.57521   9.29745  34.55471  1      158
siesta:     45.62704   9.29745  34.55471  1      159
siesta:     53.67887   9.29745  34.55471  1      160
siesta:      9.39380  11.62182  34.55471  1      161
siesta:     17.44563  11.62182  34.55471  1      162
siesta:     25.49746  11.62182  34.55471  1      163
siesta:     33.54929  11.62182  34.55471  1      164
siesta:     41.60112  11.62182  34.55471  1      165
siesta:     49.65295  11.62182  34.55471  1      166
siesta:     57.70478  11.62182  34.55471  1      167
siesta:     13.41972  13.94618  34.55471  1      168
siesta:     21.47155  13.94618  34.55471  1      169
siesta:     29.52338  13.94618  34.55471  1      170
siesta:     37.57521  13.94618  34.55471  1      171
siesta:     45.62704  13.94618  34.55471  1      172
siesta:     53.67887  13.94618  34.55471  1      173
siesta:     61.73070  13.94618  34.55471  1      174
siesta:     17.44563  16.27054  34.55471  1      175
siesta:     25.49746  16.27054  34.55471  1      176
siesta:     33.54929  16.27054  34.55471  1      177
siesta:     41.60112  16.27054  34.55471  1      178
siesta:     49.65295  16.27054  34.55471  1      179
siesta:     57.70478  16.27054  34.55471  1      180
siesta:     13.41972  18.59491  34.55471  1      181
siesta:     21.47155  18.59491  34.55471  1      182
siesta:     29.52338  18.59491  34.55471  1      183
siesta:     37.57521  18.59491  34.55471  1      184
siesta:     45.62704  18.59491  34.55471  1      185
siesta:     53.67887  18.59491  34.55471  1      186
siesta:     61.73070  18.59491  34.55471  1      187
siesta:     17.44563  20.91927  34.55471  1      188
siesta:     25.49746  20.91927  34.55471  1      189
siesta:     33.54929  20.91927  34.55471  1      190
siesta:     41.60112  20.91927  34.55471  1      191
siesta:     49.65295  20.91927  34.55471  1      192
siesta:     57.70478  20.91927  34.55471  1      193
siesta:     65.75661  20.91927  34.55471  1      194
siesta:     21.47155  23.24363  34.55471  1      195
siesta:     29.52338  23.24363  34.55471  1      196
siesta:     37.57521  23.24363  34.55471  1      197
siesta:     45.62704  23.24363  34.55471  1      198
siesta:     53.67887  23.24363  34.55471  1      199
siesta:     61.73070  23.24363  34.55471  1      200
siesta:     17.44563  25.56799  34.55471  1      201
siesta:     25.49746  25.56799  34.55471  1      202
siesta:     33.54929  25.56799  34.55471  1      203
siesta:     41.60112  25.56799  34.55471  1      204
siesta:     49.65295  25.56799  34.55471  1      205
siesta:     57.70478  25.56799  34.55471  1      206
siesta:     65.75661  25.56799  34.55471  1      207
siesta:     21.47155  27.89236  34.55471  1      208
siesta:     29.52338  27.89236  34.55471  1      209
siesta:     37.57521  27.89236  34.55471  1      210
siesta:     45.62704  27.89236  34.55471  1      211
siesta:     53.67887  27.89236  34.55471  1      212
siesta:     61.73070  27.89236  34.55471  1      213
siesta:     69.78253  27.89236  34.55471  1      214
siesta:     25.49746  30.21672  34.55471  1      215
siesta:     33.54929  30.21672  34.55471  1      216
siesta:     41.60112  30.21672  34.55471  1      217
siesta:     49.65295  30.21672  34.55471  1      218
siesta:     57.70478  30.21672  34.55471  1      219
siesta:     65.75661  30.21672  34.55471  1      220
siesta:     21.47155  32.54108  34.55471  1      221
siesta:     29.52338  32.54108  34.55471  1      222
siesta:     37.57521  32.54108  34.55471  1      223
siesta:     45.62704  32.54108  34.55471  1      224
siesta:     53.67887  32.54108  34.55471  1      225
siesta:     61.73070  32.54108  34.55471  1      226
siesta:     69.78253  32.54108  34.55471  1      227
siesta:     25.49746  34.86545  34.55471  1      228
siesta:     33.54929  34.86545  34.55471  1      229
siesta:     41.60112  34.86545  34.55471  1      230
siesta:     49.65295  34.86545  34.55471  1      231
siesta:     57.70478  34.86545  34.55471  1      232
siesta:     65.75661  34.86545  34.55471  1      233
siesta:     73.80844  34.86545  34.55471  1      234
siesta:     29.52338  37.18981  34.55471  1      235
siesta:     37.57521  37.18981  34.55471  1      236
siesta:     45.62704  37.18981  34.55471  1      237
siesta:     53.67887  37.18981  34.55471  1      238
siesta:     61.73070  37.18981  34.55471  1      239
siesta:     69.78253  37.18981  34.55471  1      240
siesta:     25.49746  39.51417  34.55471  1      241
siesta:     33.54929  39.51417  34.55471  1      242
siesta:     41.60112  39.51417  34.55471  1      243
siesta:     49.65295  39.51417  34.55471  1      244
siesta:     57.70478  39.51417  34.55471  1      245
siesta:     65.75661  39.51417  34.55471  1      246
siesta:     73.80844  39.51417  34.55471  1      247
siesta:     29.52338  41.83854  34.55471  1      248
siesta:     37.57521  41.83854  34.55471  1      249
siesta:     45.62704  41.83854  34.55471  1      250
siesta:     53.67887  41.83854  34.55471  1      251
siesta:     61.73070  41.83854  34.55471  1      252
siesta:     69.78253  41.83854  34.55471  1      253
siesta:     77.83436  41.83854  34.55471  1      254
siesta:      6.88949   1.72039  41.01156  1      255
siesta:     14.90962   1.00661  41.01156  1      256
siesta:     22.92975   0.29283  41.01156  1      257
siesta:     30.94988  -0.42095  41.01156  1      258
siesta:     38.97001  -1.13473  41.01156  1      259
siesta:     46.99014  -1.84851  41.01156  1      260
siesta:      3.08548   4.39250  41.01156  1      261
siesta:     11.10561   3.67872  41.01156  1      262
siesta:     19.12574   2.96494  41.01156  1      263
siesta:     27.14587   2.25115  41.01156  1      264
siesta:     35.16600   1.53737  41.01156  1      265
siesta:     43.18613   0.82359  41.01156  1      266
siesta:     51.20626   0.10981  41.01156  1      267
siesta:      7.30159   6.35082  41.01156  1      268
siesta:     15.32172   5.63704  41.01156  1      269
siesta:     23.34185   4.92326  41.01156  1      270
siesta:     31.36198   4.20948  41.01156  1      271
siesta:     39.38211   3.49570  41.01156  1      272
siesta:     47.40224   2.78191  41.01156  1      273
siesta:     11.51771   8.30914  41.01156  1      274
siesta:     19.53784   7.59536  41.01156  1      275
siesta:     27.55797   6.88158  41.01156  1      276
siesta:     35.57810   6.16780  41.01156  1      277
siesta:     43.59823   5.45402  41.01156  1      278
siesta:     51.61836   4.74024  41.01156  1      279
siesta:      7.71370  10.98124  41.01156  1      280
siesta:     15.73383  10.26746  41.01156  1      281
siesta:     23.75396   9.55368  41.01156  1      282
siesta:     31.77409   8.83990  41.01156  1      283
siesta:     39.79422   8.12612  41.01156  1      284
siesta:     47.81435   7.41234  41.01156  1      285
siesta:     55.83448   6.69856  41.01156  1      286
siesta:     11.92981  12.93956  41.01156  1      287
siesta:     19.94994  12.22578  41.01156  1      288
siesta:     27.97007  11.51200  41.01156  1      289
siesta:     35.99020  10.79822  41.01156  1      290
siesta:     44.01033  10.08444  41.01156  1      291
siesta:     52.03046   9.37066  41.01156  1      292
siesta:     16.14593  14.89789  41.01156  1      293
siesta:     24.16606  14.18411  41.01156  1      294
siesta:     32.18619  13.47032  41.01156  1      295
siesta:     40.20632  12.75654  41.01156  1      296
siesta:     48.22645  12.04276  41.01156  1      297
siesta:     56.24658  11.32898  41.01156  1      298
siesta:     12.34191  17.56999  41.01156  1      299
siesta:     20.36204  16.85621  41.01156  1      300
siesta:     28.38217  16.14243  41.01156  1      301
siesta:     36.40230  15.42865  41.01156  1      302
siesta:     44.42243  14.71487  41.01156  1      303
siesta:     52.44256  14.00109  41.01156  1      304
siesta:     60.46269  13.28730  41.01156  1      305
siesta:     16.55803  19.52831  41.01156  1      306
siesta:     24.57816  18.81453  41.01156  1      307
siesta:     32.59829  18.10075  41.01156  1      308
siesta:     40.61842  17.38697  41.01156  1      309
siesta:     48.63855  16.67319  41.01156  1      310
siesta:     56.65868  15.95941  41.01156  1      311
siesta:     20.77414  21.48663  41.01156  1      312
siesta:     28.79427  20.77285  41.01156  1      313
siesta:     36.81440  20.05907  41.01156  1      314
siesta:     44.83453  19.34529  41.01156  1      315
siesta:     52.85466  18.63151  41.01156  1      316
siesta:     60.87479  17.91773  41.01156  1      317
siesta:     16.97013  24.15873  41.01156  1      318
siesta:     24.99026  23.44495  41.01156  1      319
siesta:     33.01039  22.73117  41.01156  1      320
siesta:     41.03052  22.01739  41.01156  1      321
siesta:     49.05065  21.30361  41.01156  1      322
siesta:     57.07078  20.58983  41.01156  1      323
siesta:     65.09091  19.87605  41.01156  1      324
siesta:     21.18625  26.11706  41.01156  1      325
siesta:     29.20638  25.40328  41.01156  1      326
siesta:     37.22651  24.68950  41.01156  1      327
siesta:     45.24664  23.97571  41.01156  1      328
siesta:     53.26677  23.26193  41.01156  1      329
siesta:     61.28690  22.54815  41.01156  1      330
siesta:     25.40236  28.07538  41.01156  1      331
siesta:     33.42249  27.36160  41.01156  1      332
siesta:     41.44262  26.64782  41.01156  1      333
siesta:     49.46275  25.93404  41.01156  1      334
siesta:     57.48288  25.22026  41.01156  1      335
siesta:     65.50301  24.50647  41.01156  1      336
siesta:     21.59835  30.74748  41.01156  1      337
siesta:     29.61848  30.03370  41.01156  1      338
siesta:     37.63861  29.31992  41.01156  1      339
siesta:     45.65874  28.60614  41.01156  1      340
siesta:     53.67887  27.89236  41.01156  1      341
siesta:     61.69900  27.17858  41.01156  1      342
siesta:     69.71913  26.46480  41.01156  1      343
siesta:     25.81446  32.70580  41.01156  1      344
siesta:     33.83459  31.99202  41.01156  1      345
siesta:     41.85472  31.27824  41.01156  1      346
siesta:     49.87485  30.56446  41.01156  1      347
siesta:     57.89498  29.85068  41.01156  1      348
siesta:     65.91511  29.13690  41.01156  1      349
siesta:     30.03058  34.66412  41.01156  1      350
siesta:     38.05071  33.95034  41.01156  1      351
siesta:     46.07084  33.23656  41.01156  1      352
siesta:     54.09097  32.52278  41.01156  1      353
siesta:     62.11110  31.80900  41.01156  1      354
siesta:     70.13123  31.09522  41.01156  1      355
siesta:     26.22656  37.33623  41.01156  1      356
siesta:     34.24669  36.62245  41.01156  1      357
siesta:     42.26682  35.90867  41.01156  1      358
siesta:     50.28695  35.19488  41.01156  1      359
siesta:     58.30708  34.48110  41.01156  1      360
siesta:     66.32721  33.76732  41.01156  1      361
siesta:     74.34734  33.05354  41.01156  1      362
siesta:     30.44268  39.29455  41.01156  1      363
siesta:     38.46281  38.58077  41.01156  1      364
siesta:     46.48294  37.86699  41.01156  1      365
siesta:     54.50307  37.15321  41.01156  1      366
siesta:     62.52320  36.43943  41.01156  1      367
siesta:     70.54333  35.72564  41.01156  1      368
siesta:     34.65880  41.25287  41.01156  1      369
siesta:     42.67893  40.53909  41.01156  1      370
siesta:     50.69906  39.82531  41.01156  1      371
siesta:     58.71919  39.11153  41.01156  1      372
siesta:     66.73932  38.39775  41.01156  1      373
siesta:     74.75945  37.68397  41.01156  1      374
siesta:     30.85478  43.92497  41.01156  1      375
siesta:     38.87491  43.21119  41.01156  1      376
siesta:     46.89504  42.49741  41.01156  1      377
siesta:     54.91517  41.78363  41.01156  1      378
siesta:     62.93530  41.06985  41.01156  1      379
siesta:     70.95543  40.35607  41.01156  1      380
siesta:     78.97556  39.64229  41.01156  1      381
siesta:      1.54274   2.19625  41.01156  1      382
siesta:      9.56287   1.48247  41.01156  1      383
siesta:     17.58300   0.76869  41.01156  1      384
siesta:     25.60313   0.05491  41.01156  1      385
siesta:     33.62326  -0.65887  41.01156  1      386
siesta:     41.64339  -1.37266  41.01156  1      387
siesta:     49.66352  -2.08644  41.01156  1      388
siesta:      5.75885   4.15457  41.01156  1      389
siesta:     13.77898   3.44079  41.01156  1      390
siesta:     21.79911   2.72701  41.01156  1      391
siesta:     29.81924   2.01323  41.01156  1      392
siesta:     37.83937   1.29945  41.01156  1      393
siesta:     45.85950   0.58567  41.01156  1      394
siesta:      9.97497   6.11289  41.01156  1      395
siesta:     17.99510   5.39911  41.01156  1      396
siesta:     26.01523   4.68533  41.01156  1      397
siesta:     34.03536   3.97155  41.01156  1      398
siesta:     42.05549   3.25777  41.01156  1      399
siesta:     50.07562   2.54399  41.01156  1      400
siesta:      6.17096   8.78499  41.01156  1      401
siesta:     14.19109   8.07121  41.01156  1      402
siesta:     22.21122   7.35743  41.01156  1      403
siesta:     30.23135   6.64365  41.01156  1      404
siesta:     38.25148   5.92987  41.01156  1      405
siesta:     46.27161   5.21609  41.01156  1      406
siesta:     54.29174   4.50231  41.01156  1      407
siesta:     10.38707  10.74332  41.01156  1      408
siesta:     18.40720  10.02954  41.01156  1      409
siesta:     26.42733   9.31575  41.01156  1      410
siesta:     34.44746   8.60197  41.01156  1      411
siesta:     42.46759   7.88819  41.01156  1      412
siesta:     50.48772   7.17441  41.01156  1      413
siesta:     14.60319  12.70164  41.01156  1      414
siesta:     22.62332  11.98786  41.01156  1      415
siesta:     30.64345  11.27408  41.01156  1      416
siesta:     38.66358  10.56030  41.01156  1      417
siesta:     46.68371   9.84651  41.01156  1      418
siesta:     54.70384   9.13273  41.01156  1      419
siesta:     10.79917  15.37374  41.01156  1      420
siesta:     18.81930  14.65996  41.01156  1      421
siesta:     26.83943  13.94618  41.01156  1      422
siesta:     34.85956  13.23240  41.01156  1      423
siesta:     42.87969  12.51862  41.01156  1      424
siesta:     50.89982  11.80484  41.01156  1      425
siesta:     58.91995  11.09106  41.01156  1      426
siesta:     15.01529  17.33206  41.01156  1      427
siesta:     23.03542  16.61828  41.01156  1      428
siesta:     31.05555  15.90450  41.01156  1      429
siesta:     39.07568  15.19072  41.01156  1      430
siesta:     47.09581  14.47694  41.01156  1      431
siesta:     55.11594  13.76316  41.01156  1      432
siesta:     19.23141  19.29038  41.01156  1      433
siesta:     27.25154  18.57660  41.01156  1      434
siesta:     35.27167  17.86282  41.01156  1      435
siesta:     43.29180  17.14904  41.01156  1      436
siesta:     51.31193  16.43526  41.01156  1      437
siesta:     59.33206  15.72148  41.01156  1      438
siesta:     15.42739  21.96249  41.01156  1      439
siesta:     23.44752  21.24871  41.01156  1      440
siesta:     31.46765  20.53492  41.01156  1      441
siesta:     39.48778  19.82114  41.01156  1      442
siesta:     47.50791  19.10736  41.01156  1      443
siesta:     55.52804  18.39358  41.01156  1      444
siesta:     63.54817  17.67980  41.01156  1      445
siesta:     19.64351  23.92081  41.01156  1      446
siesta:     27.66364  23.20703  41.01156  1      447
siesta:     35.68377  22.49325  41.01156  1      448
siesta:     43.70390  21.77947  41.01156  1      449
siesta:     51.72403  21.06568  41.01156  1      450
siesta:     59.74416  20.35190  41.01156  1      451
siesta:     23.85962  25.87913  41.01156  1      452
siesta:     31.87975  25.16535  41.01156  1      453
siesta:     39.89988  24.45157  41.01156  1      454
siesta:     47.92001  23.73779  41.01156  1      455
siesta:     55.94014  23.02401  41.01156  1      456
siesta:     63.96027  22.31023  41.01156  1      457
siesta:     20.05561  28.55123  41.01156  1      458
siesta:     28.07574  27.83745  41.01156  1      459
siesta:     36.09587  27.12367  41.01156  1      460
siesta:     44.11600  26.40989  41.01156  1      461
siesta:     52.13613  25.69611  41.01156  1      462
siesta:     60.15626  24.98233  41.01156  1      463
siesta:     68.17639  24.26855  41.01156  1      464
siesta:     24.27172  30.50955  41.01156  1      465
siesta:     32.29185  29.79577  41.01156  1      466
siesta:     40.31198  29.08199  41.01156  1      467
siesta:     48.33211  28.36821  41.01156  1      468
siesta:     56.35224  27.65443  41.01156  1      469
siesta:     64.37237  26.94065  41.01156  1      470
siesta:     28.48784  32.46788  41.01156  1      471
siesta:     36.50797  31.75409  41.01156  1      472
siesta:     44.52810  31.04031  41.01156  1      473
siesta:     52.54823  30.32653  41.01156  1      474
siesta:     60.56836  29.61275  41.01156  1      475
siesta:     68.58849  28.89897  41.01156  1      476
siesta:     24.68383  35.13998  41.01156  1      477
siesta:     32.70396  34.42620  41.01156  1      478
siesta:     40.72409  33.71242  41.01156  1      479
siesta:     48.74422  32.99864  41.01156  1      480
siesta:     56.76435  32.28485  41.01156  1      481
siesta:     64.78448  31.57107  41.01156  1      482
siesta:     72.80461  30.85729  41.01156  1      483
siesta:     28.89994  37.09830  41.01156  1      484
siesta:     36.92007  36.38452  41.01156  1      485
siesta:     44.94020  35.67074  41.01156  1      486
siesta:     52.96033  34.95696  41.01156  1      487
siesta:     60.98046  34.24318  41.01156  1      488
siesta:     69.00059  33.52940  41.01156  1      489
siesta:     33.11606  39.05662  41.01156  1      490
siesta:     41.13619  38.34284  41.01156  1      491
siesta:     49.15632  37.62906  41.01156  1      492
siesta:     57.17645  36.91528  41.01156  1      493
siesta:     65.19658  36.20150  41.01156  1      494
siesta:     73.21671  35.48772  41.01156  1      495
siesta:     29.31204  41.72872  41.01156  1      496
siesta:     37.33217  41.01494  41.01156  1      497
siesta:     45.35230  40.30116  41.01156  1      498
siesta:     53.37243  39.58738  41.01156  1      499
siesta:     61.39256  38.87360  41.01156  1      500
siesta:     69.41269  38.15982  41.01156  1      501
siesta:     77.43282  37.44604  41.01156  1      502
siesta:     33.52816  43.68705  41.01156  1      503
siesta:     41.54829  42.97326  41.01156  1      504
siesta:     49.56842  42.25948  41.01156  1      505
siesta:     57.58855  41.54570  41.01156  1      506
siesta:     65.60868  40.83192  41.01156  1      507
siesta:     73.62881  40.11814  41.01156  1      508

siesta: System type = slab      

initatomlists: Number of atoms, orbitals, and projectors:    508  4572  4064

siesta: ******************** Simulation parameters ****************************
siesta:
siesta: The following are some of the parameters of the simulation.
siesta: A complete list of the parameters used, including default values,
siesta: can be found in file out.fdf
siesta:
redata: Spin configuration                          = none
redata: Number of spin components                   = 1
redata: Time-Reversal Symmetry                      = T
redata: Spin spiral                                 = F
redata: Long output                                 =   F
redata: Number of Atomic Species                    =        1
redata: Charge density info will appear in .RHO file
redata: Write Mulliken Pop.                         = NO
redata: Matel table size (NRTAB)                    =     1024
redata: Mesh Cutoff                                 =   300.0000 Ry
redata: Net charge of the system                    =     0.0000 |e|
redata: Min. number of SCF Iter                     =        3
redata: Max. number of SCF Iter                     =      300
redata: SCF convergence failure will abort job
redata: SCF mix quantity                            = Hamiltonian
redata: Mix DM or H after convergence               =   F
redata: Recompute H after scf cycle                 =   F
redata: Mix DM in first SCF step                    =   T
redata: Write Pulay info on disk                    =   F
redata: New DM Occupancy tolerance                  = 0.000000000001
redata: No kicks to SCF
redata: DM Mixing Weight for Kicks                  =     0.5000
redata: Require Harris convergence for SCF          =   F
redata: Harris energy tolerance for SCF             =     0.000100 eV
redata: Require DM convergence for SCF              =   T
redata: DM tolerance for SCF                        =     0.000100
redata: Require EDM convergence for SCF             =   F
redata: EDM tolerance for SCF                       =     0.001000 eV
redata: Require H convergence for SCF               =   T
redata: Hamiltonian tolerance for SCF               =     0.001000 eV
redata: Require (free) Energy convergence for SCF   =   F
redata: (free) Energy tolerance for SCF             =     0.000100 eV
redata: Using DFT-D3 dispersion                     =   T
redata: Using Saved Data (generic)                  =   F
redata: Use continuation files for DM               =   T
redata: Neglect nonoverlap interactions             =   F
redata: Method of Calculation                       = Diagonalization
redata: Electronic Temperature                      =   299.9863 K
redata: Fix the spin of the system                  =   F
redata: Max. number of TDED Iter                    =        1
redata: Number of TDED substeps                     =        3
redata: Dynamics option                             = CG coord. optimization
redata: Variable cell                               =   F
redata: Use continuation files for CG               =   F
redata: Max atomic displ per move                   =     0.2646 Ang
redata: Maximum number of optimization moves        =      200
redata: Force tolerance                             =     0.0100 eV/Ang
mix.SCF: Pulay mixing                            = Pulay
mix.SCF:    Variant                              = stable
mix.SCF:    History steps                        = 12
mix.SCF:    Linear mixing weight                 =     0.100000
mix.SCF:    Mixing weight                        =     0.100000
mix.SCF:    SVD condition                        = 0.1000E-07
redata: Save all siesta data in one NC              =   F
redata: ***********************************************************************

%block SCF.Mixers
  Pulay
%endblock SCF.Mixers

%block SCF.Mixer.Pulay
  # Mixing method
  method pulay
  variant stable

  # Mixing options
  weight 0.1000
  weight.linear 0.1000
  history 12
%endblock SCF.Mixer.Pulay
 
DFT-D3: loading default parameters for functional PBE.
DM_history_depth set to one: no extrapolation allowed by default for geometry relaxation
Size of DM history Fstack: 1
Total number of electrons:  2032.000000
Total ionic charge:  2032.000000

* ProcessorY, Blocksize:    8  64


* Orbital distribution balance (max,min):   128    64

 Kpoints in:            1 . Kpoints trimmed:            1

siesta: k-grid: Number of k-points = 1
siesta: k-points from Monkhorst-Pack grid
siesta: k-cutoff (effective) =    13.861 Ang
siesta: k-point supercell and displacements
siesta: k-grid:     1     0     0      0.000
siesta: k-grid:     0     1     0      0.000
siesta: k-grid:     0     0     1      0.000
 
diag: Algorithm                                     = D&C
diag: Parallel over k                               =   F
diag: Use parallel 2D distribution                  =   T
diag: Parallel block-size                           = 64
diag: Parallel distribution                         =     8 x     8
diag: Used triangular part                          = Lower
diag: Absolute tolerance                            =  0.100E-15
diag: Orthogonalization factor                      =  0.100E-05
diag: Memory factor                                 =  1.0000
 
siesta: Constraint v=[  0.00000,  0.00000,  1.00000] (508): center-dir
  [ 1 -- 508 ]
 
 
ts: **************************************************************
ts: Save H and S matrices                           =    F
ts: Save DM and EDM matrices                        =    F
ts: Only save the overlap matrix S                  =    F
ts: **************************************************************
 
************************ Begin: TS CHECKS AND WARNINGS ************************
************************ End: TS CHECKS AND WARNINGS **************************


                     ====================================
                        Begin CG opt. move =      0
                     ====================================

outcell: Unit cell vectors (Ang):
       27.695492   -1.230000    0.000000
       14.912957   23.370000    0.000000
        0.000000    0.000000   40.000000

outcell: Cell vector modules (Ang)   :   27.722792   27.722792   40.000000
outcell: Cell angles (23,13,12) (deg):     90.0000     90.0000     60.0000
outcell: Cell volume (Ang**3)        :  26623.4638
<dSpData1D:S at geom step 0
  <sparsity:sparsity for geom step 0
    nrows_g=4572 nrows=128 sparsity=.0059 nnzs=122520, refcount: 7>
  <dData1D:(new from dSpData1D) n=122520, refcount: 1>
refcount: 1>
new_DM -- step:     1
Initializing Density Matrix...
 
Attempting to read DM from file... Failed...
DM filled with atomic data:
<dSpData2D:DM initialized from atoms
  <sparsity:sparsity for geom step 0
    nrows_g=4572 nrows=128 sparsity=.0059 nnzs=122520, refcount: 8>
  <dData2D:DM n=122520 m=1, refcount: 1>
refcount: 1>
No. of atoms with KB's overlaping orbs in proc 0. Max # of overlaps:     263     231

InitMesh: MESH = 256 x 256 x 432 = 28311552
InitMesh: Mesh cutoff (required, used) =   300.000   314.229 Ry
New grid distribution [1]: sub = 2
New grid distribution [2]: sub = 2
New grid distribution [3]: sub = 2
Setting up quadratic distribution...

stepf: Fermi-Dirac step function

siesta: Program's energy decomposition (eV):
siesta: Ebs     =    -29690.437779
siesta: Eions   =    143338.147527
siesta: Ena     =     31651.125660
siesta: Ekin    =     55982.486603
siesta: Enl     =     -2520.577763
siesta: Eso     =         0.000000
siesta: Edftu   =         0.000000
siesta: DEna    =      4297.914319
siesta: DUscf   =       275.088376
siesta: DUext   =         0.000000
siesta: Ex      =    -26779.465768
siesta: Ec      =     -2582.735156
siesta: Exc     =    -29362.200923
siesta: EbV     =         0.000000
siesta: eta*DQ  =         0.000000
siesta: Emadel  =         0.000000
siesta: Emeta   =         0.000000
siesta: Emolmec =         0.000000
siesta: Ekinion =         0.000000
siesta: Eharris =    -85022.773100
siesta: Etot    =    -83014.311256
siesta: FreeEng =    -83014.311256

        iscf     Eharris(eV)        E_KS(eV)     FreeEng(eV)     dDmax    Ef(eV) dHmax(eV)
   scf:    1   -85022.773100   -83014.311256   -83014.311256  1.203890 -1.364198  4.741459
timer: Routine,Calls,Time,% = IterSCF        1       4.242  43.44
   scf:    2   -83036.718361   -83025.662568   -83025.662568  0.008940 -1.734543  3.993323
   scf:    3   -83077.957229   -83055.392436   -83055.392436  0.047995 -3.715415  0.292439
   scf:    4   -83056.518131   -83056.059486   -83056.059486  0.007865 -3.980780  0.160206
   scf:    5   -83056.036371   -83056.087554   -83056.087554  0.001773 -3.879975  0.119980
   scf:    6   -83056.115284   -83056.109646   -83056.109646  0.001076 -3.926668  0.018134
   scf:    7   -83056.115186   -83056.112587   -83056.112587  0.000822 -3.939300  0.003886
   scf:    8   -83056.112573   -83056.112600   -83056.112600  0.000093 -3.952136  0.001505
   scf:    9   -83056.112489   -83056.112570   -83056.112570  0.000114 -3.940492  0.005213
   scf:   10   -83056.112679   -83056.112633   -83056.112633  0.000076 -3.952446  0.000409

SCF Convergence by DM+H criterion
max |DM_out - DM_in|         :     0.0000762009
max |H_out - H_in|      (eV) :     0.0004086203
SCF cycle converged after 10 iterations

Using DM_out to compute the final energy and forces
No. of atoms with KB's overlaping orbs in proc 0. Max # of overlaps:     263     231
System symmetry is of type slab but no DFTD3.Periodic list was found. Attempting to guess symmetry for D3.
Could not guess the right amount of periodicity directions for D3.
Enabling periodicity on all directions.

siesta: E_KS(eV) =           -83106.7589

siesta: E_KS - E_eggbox =    -83106.7589

siesta: Atomic forces (eV/Ang):
----------------------------------------
   Tot   -0.000000    0.000000    0.016952
----------------------------------------
   Max    0.033166
   Res    0.010237    sqrt( Sum f_i^2 / 3N )
----------------------------------------
   Max    0.033166    constrained

Stress tensor Voigt[x,y,z,yz,xz,xy] (kbar):      -25.84      -25.85       -4.85        0.00       -0.00        0.00
(Free)E + p*V (eV/cell)   -82793.5778
Target enthalpy (eV/cell)   -83106.7589

                     ====================================
                        Begin CG opt. move =      1
                     ====================================

outcell: Unit cell vectors (Ang):
       27.695492   -1.230000    0.000000
       14.912957   23.370000    0.000000
        0.000000    0.000000   40.000000

outcell: Cell vector modules (Ang)   :   27.722792   27.722792   40.000000
outcell: Cell angles (23,13,12) (deg):     90.0000     90.0000     60.0000
outcell: Cell volume (Ang**3)        :  26623.4638
<dSpData1D:S at geom step 1
  <sparsity:sparsity for geom step 1
    nrows_g=4572 nrows=128 sparsity=.0058 nnzs=122176, refcount: 7>
  <dData1D:(new from dSpData1D) n=122176, refcount: 1>
refcount: 1>
new_DM -- step:     2
Re-using DM from previous geometries...
Number of DMs in history: 1
 DM extrapolation coefficients: 
1   1.00000
New DM after history re-use:
<dSpData2D:SpM extrapolated using coords
  <sparsity:sparsity for geom step 1
    nrows_g=4572 nrows=128 sparsity=.0058 nnzs=122176, refcount: 9>
  <dData2D:(temp array for extrapolation) n=122176 m=1, refcount: 1>
refcount: 1>
No. of atoms with KB's overlaping orbs in proc 0. Max # of overlaps:     258     231

InitMesh: MESH = 256 x 256 x 432 = 28311552
InitMesh: Mesh cutoff (required, used) =   300.000   314.229 Ry
New grid distribution [1]: sub = 2
New grid distribution [2]: sub = 2
New grid distribution [3]: sub = 2
Setting up quadratic distribution...

        iscf     Eharris(eV)        E_KS(eV)     FreeEng(eV)     dDmax    Ef(eV) dHmax(eV)
   scf:    1   -83107.145508   -83106.687861   -83106.687861  0.007792 -3.941170  0.131034
   scf:    2   -83105.926430   -83106.451631   -83106.451631  0.004690 -3.933585  0.690433
   scf:    3   -83106.728541   -83106.696550   -83106.696550  0.003966 -3.941926  0.013750
   scf:    4   -83106.697920   -83106.697271   -83106.697271  0.000103 -3.941826  0.010345
   scf:    5   -83106.698484   -83106.697930   -83106.697930  0.000192 -3.941998  0.003211
   scf:    6   -83106.698069   -83106.698009   -83106.698009  0.000083 -3.942443  0.001059
   scf:    7   -83106.698010   -83106.698010   -83106.698010  0.000008 -3.942440  0.000918

SCF Convergence by DM+H criterion
max |DM_out - DM_in|         :     0.0000084433
max |H_out - H_in|      (eV) :     0.0009178162
SCF cycle converged after 7 iterations

Using DM_out to compute the final energy and forces
No. of atoms with KB's overlaping orbs in proc 0. Max # of overlaps:     258     231
System symmetry is of type slab but no DFTD3.Periodic list was found. Attempting to guess symmetry for D3.
Could not guess the right amount of periodicity directions for D3.
Enabling periodicity on all directions.

siesta: E_KS(eV) =           -83106.5250

siesta: Atomic forces (eV/Ang):
----------------------------------------
   Tot   -0.000001   -0.000001    0.003346
----------------------------------------
   Max    0.651550
   Res    0.224952    sqrt( Sum f_i^2 / 3N )
----------------------------------------
   Max    0.651550    constrained

Stress tensor Voigt[x,y,z,yz,xz,xy] (kbar):      -25.88      -25.99       -4.69       -0.00       -0.00        0.07
(Free)E + p*V (eV/cell)   -82793.2078
Target enthalpy (eV/cell)   -83106.5250

                     ====================================
                        Begin CG opt. move =      2
                     ====================================

outcell: Unit cell vectors (Ang):
       27.695492   -1.230000    0.000000
       14.912957   23.370000    0.000000
        0.000000    0.000000   40.000000

outcell: Cell vector modules (Ang)   :   27.722792   27.722792   40.000000
outcell: Cell angles (23,13,12) (deg):     90.0000     90.0000     60.0000
outcell: Cell volume (Ang**3)        :  26623.4638
<dSpData1D:S at geom step 2
  <sparsity:sparsity for geom step 2
    nrows_g=4572 nrows=128 sparsity=.0059 nnzs=122443, refcount: 7>
  <dData1D:(new from dSpData1D) n=122443, refcount: 1>
refcount: 1>
new_DM -- step:     3
Re-using DM from previous geometries...
Number of DMs in history: 1
 DM extrapolation coefficients: 
1   1.00000
New DM after history re-use:
<dSpData2D:SpM extrapolated using coords
  <sparsity:sparsity for geom step 2
    nrows_g=4572 nrows=128 sparsity=.0059 nnzs=122443, refcount: 9>
  <dData2D:(temp array for extrapolation) n=122443 m=1, refcount: 1>
refcount: 1>
No. of atoms with KB's overlaping orbs in proc 0. Max # of overlaps:     261     231

InitMesh: MESH = 256 x 256 x 432 = 28311552
InitMesh: Mesh cutoff (required, used) =   300.000   314.229 Ry
New grid distribution [1]: sub = 2
New grid distribution [2]: sub = 2
New grid distribution [3]: sub = 2
Setting up quadratic distribution...

        iscf     Eharris(eV)        E_KS(eV)     FreeEng(eV)     dDmax    Ef(eV) dHmax(eV)
   scf:    1   -83106.247023   -83106.617249   -83106.617249  0.006572 -3.939723  0.063753
   scf:    2   -83106.465727   -83106.571405   -83106.571405  0.002315 -3.940735  0.297659
   scf:    3   -83106.626128   -83106.620170   -83106.620170  0.001939 -3.939659  0.011342
   scf:    4   -83106.621148   -83106.620681   -83106.620681  0.000090 -3.939766  0.008396
   scf:    5   -83106.621459   -83106.621101   -83106.621101  0.000149 -3.939626  0.002820
   scf:    6   -83106.621207   -83106.621160   -83106.621160  0.000070 -3.939281  0.000576

SCF Convergence by DM+H criterion
max |DM_out - DM_in|         :     0.0000703299
max |H_out - H_in|      (eV) :     0.0005758553
SCF cycle converged after 6 iterations

Using DM_out to compute the final energy and forces
No. of atoms with KB's overlaping orbs in proc 0. Max # of overlaps:     261     231
System symmetry is of type slab but no DFTD3.Periodic list was found. Attempting to guess symmetry for D3.
Could not guess the right amount of periodicity directions for D3.
Enabling periodicity on all directions.

siesta: E_KS(eV) =           -83106.7672

siesta: Atomic forces (eV/Ang):
----------------------------------------
   Tot    0.000000   -0.000001    0.015692
----------------------------------------
   Max    0.093988
   Res    0.033818    sqrt( Sum f_i^2 / 3N )
----------------------------------------
   Max    0.093988    constrained

Stress tensor Voigt[x,y,z,yz,xz,xy] (kbar):      -25.85      -25.86       -4.83        0.00        0.00        0.01
(Free)E + p*V (eV/cell)   -82793.6031
Target enthalpy (eV/cell)   -83106.7672

cgvc: Finished line minimization    1.  Mean atomic displacement =    0.0035

                     ====================================
                        Begin CG opt. move =      3
                     ====================================

outcell: Unit cell vectors (Ang):
       27.695492   -1.230000    0.000000
       14.912957   23.370000    0.000000
        0.000000    0.000000   40.000000

outcell: Cell vector modules (Ang)   :   27.722792   27.722792   40.000000
outcell: Cell angles (23,13,12) (deg):     90.0000     90.0000     60.0000
outcell: Cell volume (Ang**3)        :  26623.4638
<dSpData1D:S at geom step 3
  <sparsity:sparsity for geom step 3
    nrows_g=4572 nrows=128 sparsity=.0059 nnzs=122363, refcount: 7>
  <dData1D:(new from dSpData1D) n=122363, refcount: 1>
refcount: 1>
new_DM -- step:     4
Re-using DM from previous geometries...
Number of DMs in history: 1
 DM extrapolation coefficients: 
1   1.00000
New DM after history re-use:
<dSpData2D:SpM extrapolated using coords
  <sparsity:sparsity for geom step 3
    nrows_g=4572 nrows=128 sparsity=.0059 nnzs=122363, refcount: 9>
  <dData2D:(temp array for extrapolation) n=122363 m=1, refcount: 1>
refcount: 1>
No. of atoms with KB's overlaping orbs in proc 0. Max # of overlaps:     261     231

InitMesh: MESH = 256 x 256 x 432 = 28311552
InitMesh: Mesh cutoff (required, used) =   300.000   314.229 Ry
New grid distribution [1]: sub = 2
New grid distribution [2]: sub = 2
New grid distribution [3]: sub = 2
Setting up quadratic distribution...

        iscf     Eharris(eV)        E_KS(eV)     FreeEng(eV)     dDmax    Ef(eV) dHmax(eV)
   scf:    1   -83106.900590   -83106.810359   -83106.810359  0.000250 -3.952821  0.008660
   scf:    2   -83106.807333   -83106.809440   -83106.809440  0.000416 -3.952398  0.042151
   scf:    3   -83106.810574   -83106.810409   -83106.810409  0.000342 -3.952751  0.000539
   scf:    4   -83106.810410   -83106.810410   -83106.810410  0.000006 -3.952763  0.000227

SCF Convergence by DM+H criterion
max |DM_out - DM_in|         :     0.0000062003
max |H_out - H_in|      (eV) :     0.0002273248
SCF cycle converged after 4 iterations

Using DM_out to compute the final energy and forces
No. of atoms with KB's overlaping orbs in proc 0. Max # of overlaps:     261     231
System symmetry is of type slab but no DFTD3.Periodic list was found. Attempting to guess symmetry for D3.
Could not guess the right amount of periodicity directions for D3.
Enabling periodicity on all directions.

siesta: E_KS(eV) =           -83106.7823

siesta: Atomic forces (eV/Ang):
----------------------------------------
   Tot   -0.000001   -0.000000    0.016124
----------------------------------------
   Max    0.087232
   Res    0.031188    sqrt( Sum f_i^2 / 3N )
----------------------------------------
   Max    0.087232    constrained

Stress tensor Voigt[x,y,z,yz,xz,xy] (kbar):      -25.85      -25.87       -4.80        0.00        0.00        0.01
(Free)E + p*V (eV/cell)   -82793.6940
Target enthalpy (eV/cell)   -83106.7823

                     ====================================
                        Begin CG opt. move =      4
                     ====================================

outcell: Unit cell vectors (Ang):
       27.695492   -1.230000    0.000000
       14.912957   23.370000    0.000000
        0.000000    0.000000   40.000000

outcell: Cell vector modules (Ang)   :   27.722792   27.722792   40.000000
outcell: Cell angles (23,13,12) (deg):     90.0000     90.0000     60.0000
outcell: Cell volume (Ang**3)        :  26623.4638
<dSpData1D:S at geom step 4
  <sparsity:sparsity for geom step 4
    nrows_g=4572 nrows=128 sparsity=.0059 nnzs=122299, refcount: 7>
  <dData1D:(new from dSpData1D) n=122299, refcount: 1>
refcount: 1>
new_DM -- step:     5
Re-using DM from previous geometries...
Number of DMs in history: 1
 DM extrapolation coefficients: 
1   1.00000
New DM after history re-use:
<dSpData2D:SpM extrapolated using coords
  <sparsity:sparsity for geom step 4
    nrows_g=4572 nrows=128 sparsity=.0059 nnzs=122299, refcount: 9>
  <dData2D:(temp array for extrapolation) n=122299 m=1, refcount: 1>
refcount: 1>
No. of atoms with KB's overlaping orbs in proc 0. Max # of overlaps:     260     231

InitMesh: MESH = 256 x 256 x 432 = 28311552
InitMesh: Mesh cutoff (required, used) =   300.000   314.229 Ry
New grid distribution [1]: sub = 2
New grid distribution [2]: sub = 2
New grid distribution [3]: sub = 2
Setting up quadratic distribution...

        iscf     Eharris(eV)        E_KS(eV)     FreeEng(eV)     dDmax    Ef(eV) dHmax(eV)
   scf:    1   -83106.989237   -83106.848877   -83106.848877  0.000399 -3.942444  0.016365
   scf:    2   -83106.841829   -83106.846729   -83106.846729  0.000603 -3.941892  0.088088
   scf:    3   -83106.849349   -83106.848988   -83106.848988  0.000506 -3.942331  0.000888
   scf:    4   -83106.848993   -83106.848991   -83106.848991  0.000006 -3.942325  0.000476

SCF Convergence by DM+H criterion
max |DM_out - DM_in|         :     0.0000063723
max |H_out - H_in|      (eV) :     0.0004755110
SCF cycle converged after 4 iterations

Using DM_out to compute the final energy and forces
No. of atoms with KB's overlaping orbs in proc 0. Max # of overlaps:     260     231
System symmetry is of type slab but no DFTD3.Periodic list was found. Attempting to guess symmetry for D3.
Could not guess the right amount of periodicity directions for D3.
Enabling periodicity on all directions.

siesta: E_KS(eV) =           -83106.8041

siesta: Atomic forces (eV/Ang):
----------------------------------------
   Tot    0.000001   -0.000002    0.012842
----------------------------------------
   Max    0.076711
   Res    0.027180    sqrt( Sum f_i^2 / 3N )
----------------------------------------
   Max    0.076711    constrained

Stress tensor Voigt[x,y,z,yz,xz,xy] (kbar):      -25.86      -25.88       -4.76        0.00       -0.00        0.01
(Free)E + p*V (eV/cell)   -82793.8161
Target enthalpy (eV/cell)   -83106.8041

                     ====================================
                        Begin CG opt. move =      5
                     ====================================

outcell: Unit cell vectors (Ang):
       27.695492   -1.230000    0.000000
       14.912957   23.370000    0.000000
        0.000000    0.000000   40.000000

outcell: Cell vector modules (Ang)   :   27.722792   27.722792   40.000000
outcell: Cell angles (23,13,12) (deg):     90.0000     90.0000     60.0000
outcell: Cell volume (Ang**3)        :  26623.4638
<dSpData1D:S at geom step 5
  <sparsity:sparsity for geom step 5
    nrows_g=4572 nrows=128 sparsity=.0058 nnzs=122175, refcount: 7>
  <dData1D:(new from dSpData1D) n=122175, refcount: 1>
refcount: 1>
new_DM -- step:     6
Re-using DM from previous geometries...
Number of DMs in history: 1
 DM extrapolation coefficients: 
1   1.00000
New DM after history re-use:
<dSpData2D:SpM extrapolated using coords
  <sparsity:sparsity for geom step 5
    nrows_g=4572 nrows=128 sparsity=.0058 nnzs=122175, refcount: 9>
  <dData2D:(temp array for extrapolation) n=122175 m=1, refcount: 1>
refcount: 1>
No. of atoms with KB's overlaping orbs in proc 0. Max # of overlaps:     258     231

InitMesh: MESH = 256 x 256 x 432 = 28311552
InitMesh: Mesh cutoff (required, used) =   300.000   314.229 Ry
New grid distribution [1]: sub = 2
New grid distribution [2]: sub = 2
New grid distribution [3]: sub = 2
Setting up quadratic distribution...

        iscf     Eharris(eV)        E_KS(eV)     FreeEng(eV)     dDmax    Ef(eV) dHmax(eV)
   scf:    1   -83107.118539   -83106.904074   -83106.904074  0.000638 -3.954147  0.028438
   scf:    2   -83106.884430   -83106.898074   -83106.898074  0.001024 -3.953415  0.154943
   scf:    3   -83106.905353   -83106.904372   -83106.904372  0.000862 -3.953981  0.001463
   scf:    4   -83106.904384   -83106.904379   -83106.904379  0.000012 -3.953972  0.000732

SCF Convergence by DM+H criterion
max |DM_out - DM_in|         :     0.0000121428
max |H_out - H_in|      (eV) :     0.0007323376
SCF cycle converged after 4 iterations

Using DM_out to compute the final energy and forces
No. of atoms with KB's overlaping orbs in proc 0. Max # of overlaps:     258     231
System symmetry is of type slab but no DFTD3.Periodic list was found. Attempting to guess symmetry for D3.
Could not guess the right amount of periodicity directions for D3.
Enabling periodicity on all directions.

siesta: E_KS(eV) =           -83106.8328

siesta: Atomic forces (eV/Ang):
----------------------------------------
   Tot   -0.000001    0.000000    0.005674
----------------------------------------
   Max    0.059649
   Res    0.021087    sqrt( Sum f_i^2 / 3N )
----------------------------------------
   Max    0.059649    constrained

Stress tensor Voigt[x,y,z,yz,xz,xy] (kbar):      -25.88      -25.89       -4.70       -0.00        0.00        0.01
(Free)E + p*V (eV/cell)   -82794.0046
Target enthalpy (eV/cell)   -83106.8328

                     ====================================
                        Begin CG opt. move =      6
                     ====================================

outcell: Unit cell vectors (Ang):
       27.695492   -1.230000    0.000000
       14.912957   23.370000    0.000000
        0.000000    0.000000   40.000000

outcell: Cell vector modules (Ang)   :   27.722792   27.722792   40.000000
outcell: Cell angles (23,13,12) (deg):     90.0000     90.0000     60.0000
outcell: Cell volume (Ang**3)        :  26623.4638
<dSpData1D:S at geom step 6
  <sparsity:sparsity for geom step 6
    nrows_g=4572 nrows=128 sparsity=.0058 nnzs=122086, refcount: 7>
  <dData1D:(new from dSpData1D) n=122086, refcount: 1>
refcount: 1>
new_DM -- step:     7
Re-using DM from previous geometries...
Number of DMs in history: 1
 DM extrapolation coefficients: 
1   1.00000
New DM after history re-use:
<dSpData2D:SpM extrapolated using coords
  <sparsity:sparsity for geom step 6
    nrows_g=4572 nrows=128 sparsity=.0058 nnzs=122086, refcount: 9>
  <dData2D:(temp array for extrapolation) n=122086 m=1, refcount: 1>
refcount: 1>
No. of atoms with KB's overlaping orbs in proc 0. Max # of overlaps:     257     230

InitMesh: MESH = 256 x 256 x 432 = 28311552
InitMesh: Mesh cutoff (required, used) =   300.000   314.229 Ry
New grid distribution [1]: sub = 2
New grid distribution [2]: sub = 2
New grid distribution [3]: sub = 2
Setting up quadratic distribution...

        iscf     Eharris(eV)        E_KS(eV)     FreeEng(eV)     dDmax    Ef(eV) dHmax(eV)
   scf:    1   -83107.294421   -83106.976331   -83106.976331  0.001020 -3.942658  0.050831
   scf:    2   -83106.918817   -83106.958712   -83106.958712  0.001773 -3.941834  0.281089
   scf:    3   -83106.979931   -83106.977159   -83106.977159  0.001498 -3.942405  0.002747
   scf:    4   -83106.977192   -83106.977178   -83106.977178  0.000021 -3.942380  0.001216
   scf:    5   -83106.977190   -83106.977185   -83106.977185  0.000013 -3.942439  0.000703

SCF Convergence by DM+H criterion
max |DM_out - DM_in|         :     0.0000133234
max |H_out - H_in|      (eV) :     0.0007027977
SCF cycle converged after 5 iterations

Using DM_out to compute the final energy and forces
No. of atoms with KB's overlaping orbs in proc 0. Max # of overlaps:     257     230
System symmetry is of type slab but no DFTD3.Periodic list was found. Attempting to guess symmetry for D3.
Could not guess the right amount of periodicity directions for D3.
Enabling periodicity on all directions.

siesta: E_KS(eV) =           -83106.8631

siesta: Atomic forces (eV/Ang):
----------------------------------------
   Tot    0.000001   -0.000002    0.018223
----------------------------------------
   Max    0.037357
   Res    0.013435    sqrt( Sum f_i^2 / 3N )
----------------------------------------
   Max    0.037357    constrained

Stress tensor Voigt[x,y,z,yz,xz,xy] (kbar):      -25.90      -25.91       -4.60        0.00       -0.00        0.00
(Free)E + p*V (eV/cell)   -82794.3658
Target enthalpy (eV/cell)   -83106.8631

                     ====================================
                        Begin CG opt. move =      7
                     ====================================

outcell: Unit cell vectors (Ang):
       27.695492   -1.230000    0.000000
       14.912957   23.370000    0.000000
        0.000000    0.000000   40.000000

outcell: Cell vector modules (Ang)   :   27.722792   27.722792   40.000000
outcell: Cell angles (23,13,12) (deg):     90.0000     90.0000     60.0000
outcell: Cell volume (Ang**3)        :  26623.4638
<dSpData1D:S at geom step 7
  <sparsity:sparsity for geom step 7
    nrows_g=4572 nrows=128 sparsity=.0058 nnzs=121629, refcount: 7>
  <dData1D:(new from dSpData1D) n=121629, refcount: 1>
refcount: 1>
new_DM -- step:     8
Re-using DM from previous geometries...
Number of DMs in history: 1
 DM extrapolation coefficients: 
1   1.00000
New DM after history re-use:
<dSpData2D:SpM extrapolated using coords
  <sparsity:sparsity for geom step 7
    nrows_g=4572 nrows=128 sparsity=.0058 nnzs=121629, refcount: 9>
  <dData2D:(temp array for extrapolation) n=121629 m=1, refcount: 1>
refcount: 1>
No. of atoms with KB's overlaping orbs in proc 0. Max # of overlaps:     255     230

InitMesh: MESH = 256 x 256 x 432 = 28311552
InitMesh: Mesh cutoff (required, used) =   300.000   314.229 Ry
New grid distribution [1]: sub = 2
New grid distribution [2]: sub = 2
New grid distribution [3]: sub = 2
Setting up quadratic distribution...

        iscf     Eharris(eV)        E_KS(eV)     FreeEng(eV)     dDmax    Ef(eV) dHmax(eV)
   scf:    1   -83107.499772   -83107.051965   -83107.051965  0.001628 -3.943072  0.093615
   scf:    2   -83106.870654   -83106.996255   -83106.996255  0.003102 -3.942411  0.526049
   scf:    3   -83107.062797   -83107.054438   -83107.054438  0.002632 -3.942569  0.005410
   scf:    4   -83107.054565   -83107.054513   -83107.054513  0.000043 -3.942458  0.002278
   scf:    5   -83107.054552   -83107.054536   -83107.054536  0.000024 -3.942525  0.001167
   scf:    6   -83107.054545   -83107.054541   -83107.054541  0.000026 -3.942967  0.000354

SCF Convergence by DM+H criterion
max |DM_out - DM_in|         :     0.0000258919
max |H_out - H_in|      (eV) :     0.0003540838
SCF cycle converged after 6 iterations

Using DM_out to compute the final energy and forces
No. of atoms with KB's overlaping orbs in proc 0. Max # of overlaps:     255     230
System symmetry is of type slab but no DFTD3.Periodic list was found. Attempting to guess symmetry for D3.
Could not guess the right amount of periodicity directions for D3.
Enabling periodicity on all directions.

siesta: E_KS(eV) =           -83106.8733

siesta: Atomic forces (eV/Ang):
----------------------------------------
   Tot    0.000011   -0.000000    0.011470
----------------------------------------
   Max    0.049188
   Res    0.017149    sqrt( Sum f_i^2 / 3N )
----------------------------------------
   Max    0.049188    constrained

Stress tensor Voigt[x,y,z,yz,xz,xy] (kbar):      -25.94      -25.93       -4.45       -0.00       -0.00       -0.00
(Free)E + p*V (eV/cell)   -82794.8899
Target enthalpy (eV/cell)   -83106.8733

                     ====================================
                        Begin CG opt. move =      8
                     ====================================

outcell: Unit cell vectors (Ang):
       27.695492   -1.230000    0.000000
       14.912957   23.370000    0.000000
        0.000000    0.000000   40.000000

outcell: Cell vector modules (Ang)   :   27.722792   27.722792   40.000000
outcell: Cell angles (23,13,12) (deg):     90.0000     90.0000     60.0000
outcell: Cell volume (Ang**3)        :  26623.4638
<dSpData1D:S at geom step 8
  <sparsity:sparsity for geom step 8
    nrows_g=4572 nrows=128 sparsity=.0058 nnzs=121785, refcount: 7>
  <dData1D:(new from dSpData1D) n=121785, refcount: 1>
refcount: 1>
new_DM -- step:     9
Re-using DM from previous geometries...
Number of DMs in history: 1
 DM extrapolation coefficients: 
1   1.00000
New DM after history re-use:
<dSpData2D:SpM extrapolated using coords
  <sparsity:sparsity for geom step 8
    nrows_g=4572 nrows=128 sparsity=.0058 nnzs=121785, refcount: 9>
  <dData2D:(temp array for extrapolation) n=121785 m=1, refcount: 1>
refcount: 1>
No. of atoms with KB's overlaping orbs in proc 0. Max # of overlaps:     255     230

InitMesh: MESH = 256 x 256 x 432 = 28311552
InitMesh: Mesh cutoff (required, used) =   300.000   314.229 Ry
New grid distribution [1]: sub = 2
New grid distribution [2]: sub = 2
New grid distribution [3]: sub = 2
Setting up quadratic distribution...

        iscf     Eharris(eV)        E_KS(eV)     FreeEng(eV)     dDmax    Ef(eV) dHmax(eV)
   scf:    1   -83106.703268   -83106.823738   -83106.823738  0.001233 -3.934331  0.031164
   scf:    2   -83106.804819   -83106.817909   -83106.817909  0.001005 -3.935271  0.177274
   scf:    3   -83106.824833   -83106.823983   -83106.823983  0.000855 -3.934482  0.001806
   scf:    4   -83106.823996   -83106.823991   -83106.823991  0.000016 -3.934527  0.000700

SCF Convergence by DM+H criterion
max |DM_out - DM_in|         :     0.0000164658
max |H_out - H_in|      (eV) :     0.0007004921
SCF cycle converged after 4 iterations

Using DM_out to compute the final energy and forces
No. of atoms with KB's overlaping orbs in proc 0. Max # of overlaps:     255     230
System symmetry is of type slab but no DFTD3.Periodic list was found. Attempting to guess symmetry for D3.
Could not guess the right amount of periodicity directions for D3.
Enabling periodicity on all directions.

siesta: E_KS(eV) =           -83106.8751

siesta: Atomic forces (eV/Ang):
----------------------------------------
   Tot   -0.000002    0.000001    0.020064
----------------------------------------
   Max    0.041030
   Res    0.014010    sqrt( Sum f_i^2 / 3N )
----------------------------------------
   Max    0.041030    constrained

Stress tensor Voigt[x,y,z,yz,xz,xy] (kbar):      -25.93      -25.92       -4.49       -0.00       -0.00       -0.00
(Free)E + p*V (eV/cell)   -82794.7767
Target enthalpy (eV/cell)   -83106.8751

cgvc: Finished line minimization    2.  Mean atomic displacement =    0.0481

                     ====================================
                        Begin CG opt. move =      9
                     ====================================

outcell: Unit cell vectors (Ang):
       27.695492   -1.230000    0.000000
       14.912957   23.370000    0.000000
        0.000000    0.000000   40.000000

outcell: Cell vector modules (Ang)   :   27.722792   27.722792   40.000000
outcell: Cell angles (23,13,12) (deg):     90.0000     90.0000     60.0000
outcell: Cell volume (Ang**3)        :  26623.4638
<dSpData1D:S at geom step 9
  <sparsity:sparsity for geom step 9
    nrows_g=4572 nrows=128 sparsity=.0059 nnzs=123001, refcount: 7>
  <dData1D:(new from dSpData1D) n=123001, refcount: 1>
refcount: 1>
new_DM -- step:    10
Re-using DM from previous geometries...
Number of DMs in history: 1
 DM extrapolation coefficients: 
1   1.00000
New DM after history re-use:
<dSpData2D:SpM extrapolated using coords
  <sparsity:sparsity for geom step 9
    nrows_g=4572 nrows=128 sparsity=.0059 nnzs=123001, refcount: 9>
  <dData2D:(temp array for extrapolation) n=123001 m=1, refcount: 1>
refcount: 1>
No. of atoms with KB's overlaping orbs in proc 0. Max # of overlaps:     259     232

InitMesh: MESH = 256 x 256 x 432 = 28311552
InitMesh: Mesh cutoff (required, used) =   300.000   314.229 Ry
New grid distribution [1]: sub = 2
New grid distribution [2]: sub = 2
New grid distribution [3]: sub = 2
Setting up quadratic distribution...

        iscf     Eharris(eV)        E_KS(eV)     FreeEng(eV)     dDmax    Ef(eV) dHmax(eV)
   scf:    1   -83105.944610   -83106.192156   -83106.192156  0.011305 -3.939919  0.840423
   scf:    2   -83082.562230   -83099.070192   -83099.070192  0.042415 -3.942159  3.909174
   scf:    3   -83107.962120   -83106.643037   -83106.643037  0.034820 -3.943205  0.060265
   scf:    4   -83106.657952   -83106.652084   -83106.652084  0.001099 -3.942961  0.019274
   scf:    5   -83106.654511   -83106.653587   -83106.653587  0.000505 -3.943068  0.009539
   scf:    6   -83106.654362   -83106.654024   -83106.654024  0.000203 -3.943619  0.005422
   scf:    7   -83106.654209   -83106.654135   -83106.654135  0.000130 -3.944016  0.004433
   scf:    8   -83106.654158   -83106.654154   -83106.654154  0.000033 -3.944248  0.002114
   scf:    9   -83106.654159   -83106.654158   -83106.654158  0.000023 -3.944280  0.000378

SCF Convergence by DM+H criterion
max |DM_out - DM_in|         :     0.0000229076
max |H_out - H_in|      (eV) :     0.0003776178
SCF cycle converged after 9 iterations

Using DM_out to compute the final energy and forces
No. of atoms with KB's overlaping orbs in proc 0. Max # of overlaps:     259     232
System symmetry is of type slab but no DFTD3.Periodic list was found. Attempting to guess symmetry for D3.
Could not guess the right amount of periodicity directions for D3.
Enabling periodicity on all directions.

siesta: E_KS(eV) =           -83106.2548

siesta: Atomic forces (eV/Ang):
----------------------------------------
   Tot    0.000054    0.000005   -0.019314
----------------------------------------
   Max    0.939430
   Res    0.257705    sqrt( Sum f_i^2 / 3N )
----------------------------------------
   Max    0.939430    constrained

Stress tensor Voigt[x,y,z,yz,xz,xy] (kbar):      -25.82      -26.24       -4.19       -0.00        0.00        0.30
(Free)E + p*V (eV/cell)   -82794.6990
Target enthalpy (eV/cell)   -83106.2548

                     ====================================
                        Begin CG opt. move =     10
                     ====================================

outcell: Unit cell vectors (Ang):
       27.695492   -1.230000    0.000000
       14.912957   23.370000    0.000000
        0.000000    0.000000   40.000000

outcell: Cell vector modules (Ang)   :   27.722792   27.722792   40.000000
outcell: Cell angles (23,13,12) (deg):     90.0000     90.0000     60.0000
outcell: Cell volume (Ang**3)        :  26623.4638
<dSpData1D:S at geom step 10
  <sparsity:sparsity for geom step 10
    nrows_g=4572 nrows=128 sparsity=.0058 nnzs=121695, refcount: 7>
  <dData1D:(new from dSpData1D) n=121695, refcount: 1>
refcount: 1>
new_DM -- step:    11
Re-using DM from previous geometries...
Number of DMs in history: 1
 DM extrapolation coefficients: 
1   1.00000
New DM after history re-use:
<dSpData2D:SpM extrapolated using coords
  <sparsity:sparsity for geom step 10
    nrows_g=4572 nrows=128 sparsity=.0058 nnzs=121695, refcount: 9>
  <dData2D:(temp array for extrapolation) n=121695 m=1, refcount: 1>
refcount: 1>
No. of atoms with KB's overlaping orbs in proc 0. Max # of overlaps:     255     230

InitMesh: MESH = 256 x 256 x 432 = 28311552
InitMesh: Mesh cutoff (required, used) =   300.000   314.229 Ry
New grid distribution [1]: sub = 2
New grid distribution [2]: sub = 2
New grid distribution [3]: sub = 2
Setting up quadratic distribution...

        iscf     Eharris(eV)        E_KS(eV)     FreeEng(eV)     dDmax    Ef(eV) dHmax(eV)
   scf:    1   -83104.690508   -83106.107407   -83106.107407  0.010184 -3.956420  0.813487
   scf:    2   -83080.922702   -83098.425851   -83098.425851  0.037281 -3.953943  4.026814
   scf:    3   -83107.682768   -83106.504309   -83106.504309  0.030949 -3.947964  0.080467
   scf:    4   -83106.523360   -83106.516197   -83106.516197  0.001127 -3.948223  0.024082
   scf:    5   -83106.519512   -83106.518374   -83106.518374  0.000661 -3.948252  0.008425
   scf:    6   -83106.518936   -83106.518682   -83106.518682  0.000124 -3.947877  0.006297
   scf:    7   -83106.518901   -83106.518804   -83106.518804  0.000096 -3.947552  0.002897
   scf:    8   -83106.518868   -83106.518843   -83106.518843  0.000062 -3.947165  0.001290
   scf:    9   -83106.518845   -83106.518845   -83106.518845  0.000021 -3.947128  0.000800

SCF Convergence by DM+H criterion
max |DM_out - DM_in|         :     0.0000209804
max |H_out - H_in|      (eV) :     0.0008003350
SCF cycle converged after 9 iterations

Using DM_out to compute the final energy and forces
No. of atoms with KB's overlaping orbs in proc 0. Max # of overlaps:     255     230
System symmetry is of type slab but no DFTD3.Periodic list was found. Attempting to guess symmetry for D3.
Could not guess the right amount of periodicity directions for D3.
Enabling periodicity on all directions.

siesta: E_KS(eV) =           -83106.8814

siesta: Atomic forces (eV/Ang):
----------------------------------------
   Tot   -0.000004   -0.000008    0.015718
----------------------------------------
   Max    0.070516
   Res    0.019800    sqrt( Sum f_i^2 / 3N )
----------------------------------------
   Max    0.070516    constrained

Stress tensor Voigt[x,y,z,yz,xz,xy] (kbar):      -25.91      -25.95       -4.46        0.00        0.00        0.03
(Free)E + p*V (eV/cell)   -82794.8692
Target enthalpy (eV/cell)   -83106.8814

cgvc: Finished line minimization    3.  Mean atomic displacement =    0.0044

                     ====================================
                        Begin CG opt. move =     11
                     ====================================

outcell: Unit cell vectors (Ang):
       27.695492   -1.230000    0.000000
       14.912957   23.370000    0.000000
        0.000000    0.000000   40.000000

outcell: Cell vector modules (Ang)   :   27.722792   27.722792   40.000000
outcell: Cell angles (23,13,12) (deg):     90.0000     90.0000     60.0000
outcell: Cell volume (Ang**3)        :  26623.4638
<dSpData1D:S at geom step 11
  <sparsity:sparsity for geom step 11
    nrows_g=4572 nrows=128 sparsity=.0058 nnzs=121599, refcount: 7>
  <dData1D:(new from dSpData1D) n=121599, refcount: 1>
refcount: 1>
new_DM -- step:    12
Re-using DM from previous geometries...
Number of DMs in history: 1
[...]
   19.88733110   14.76183441   18.24084996   1     210  C
   24.14591857   14.76190742   18.26310072   1     211  C
   28.40564032   14.75999220   18.27452313   1     212  C
   32.66732609   14.75768250   18.26222344   1     213  C
   36.93019637   14.75738842   18.23463830   1     214  C
   13.49732647   15.98881207   18.21415710   1     215  C
   17.75794366   15.99133156   18.21854773   1     216  C
   22.01713310   15.99275239   18.24483270   1     217  C
   26.27628303   15.99145887   18.26960093   1     218  C
   30.53680089   15.98833680   18.26960154   1     219  C
   34.79896742   15.98652762   18.24212358   1     220  C
   11.36599797   17.21735815   18.20852716   1     221  C
   15.62787640   17.22004383   18.19703945   1     222  C
   19.88788637   17.22275807   18.21865797   1     223  C
   24.14697491   17.22277988   18.25378502   1     224  C
   28.40668929   17.21997009   18.27090153   1     225  C
   32.66780993   17.21671083   18.25378384   1     226  C
   36.92986782   17.21620307   18.21371958   1     227  C
   13.49669721   18.44835625   18.18356343   1     228  C
   17.75778104   18.45185861   18.19061272   1     229  C
   22.01744272   18.45350966   18.22802220   1     230  C
   26.27679817   18.45187588   18.26222317   1     231  C
   30.53716045   18.44806302   18.26309949   1     232  C
   34.79841583   18.44557572   18.22802158   1     233  C
   39.06036154   18.44659437   18.18387714   1     234  C
   15.62666552   19.68019833   18.16879681   1     235  C
   19.88724276   19.68347039   18.19713801   1     236  C
   24.14676665   19.68351284   18.24212324   1     237  C
   28.40670916   19.68007198   18.26460889   1     238  C
   32.66749547   19.67622119   18.24483091   1     239  C
   36.92869424   19.67540218   18.19713915   1     240  C
   13.49487496   20.90819598   18.16064244   1     241  C
   17.75627703   20.91235233   18.16899777   1     242  C
   22.01638591   20.91408645   18.21371904   1     243  C
   26.27636123   20.91218911   18.25487607   1     244  C
   30.53675097   20.90791473   18.25762200   1     245  C
   34.79733295   20.90519919   18.21865784   1     246  C
   39.05841660   20.90643055   18.16899840   1     247  C
   15.62453001   22.14047564   18.15190493   1     248  C
   19.88558694   22.14395151   18.18387620   1     249  C
   24.14561703   22.14377953   18.23463840   1     250  C
   28.40599398   22.14002450   18.26009914   1     251  C
   32.66638895   22.13614195   18.24084898   1     252  C
   36.92681786   22.13537429   18.19061342   1     253  C
   41.18787718   22.13851611   18.15190517   1     254  C
    3.64706858    0.90702252   21.81903467   1     255  C
    7.89048336    0.52811939   21.76973767   1     256  C
   12.13420608    0.15289063   21.73150134   1     257  C
   16.37825998   -0.22043066   21.73601706   1     258  C
   20.62201811   -0.59588623   21.77991959   1     259  C
   24.86593151   -0.97532643   21.82683975   1     260  C
    1.63532399    2.32314205   21.82683956   1     261  C
    5.87874344    1.94235051   21.79130660   1     262  C
   10.12196409    1.56519968   21.74411737   1     263  C
   14.36581713    1.19153768   21.72636120   1     264  C
   18.60991666    0.81748082   21.75373384   1     265  C
   22.85408894    0.44005236   21.80452127   1     266  C
   27.09841279    0.05898791   21.83538623   1     267  C
    3.86699874    3.35776153   21.80452149   1     268  C
    8.10986064    2.97875205   21.76055749   1     269  C
   12.35307323    2.60335451   21.72677327   1     270  C
   16.59732680    2.22975943   21.73265068   1     271  C
   20.84184321    1.85433679   21.77439693   1     272  C
   25.08645565    1.47495774   21.81903387   1     273  C
    6.09792840    4.39327492   21.77439700   1     274  C
   10.34059772    4.01609036   21.73516149   1     275  C
   14.58420629    3.64190442   21.72102133   1     276  C
   18.82884887    3.26758598   21.74587131   1     277  C
   23.07399917    2.88997915   21.79130503   1     278  C
   27.31881594    2.50930928   21.81878584   1     279  C
    4.08588471    5.80876426   21.77991825   1     280  C
    8.32833476    5.42995801   21.74587197   1     281  C
   12.57121348    5.05413150   21.71943137   1     282  C
   16.81551553    4.68005389   21.72515907   1     283  C
   21.06089031    4.30398182   21.76055698   1     284  C
   25.30624503    3.92487816   21.79764320   1     285  C
   29.55055911    3.54376199   21.80436043   1     286  C
    6.31594767    6.84461142   21.75373307   1     287  C
   10.55823449    6.46732298   21.72515968   1     288  C
   14.80182490    6.09233371   21.71495173   1     289  C
   19.04716217    5.71719061   21.73516077   1     290  C
   23.29288871    5.33931275   21.76973714   1     291  C
   27.53806020    4.95942392   21.79123834   1     292  C
    8.54531230    7.88142645   21.73265070   1     293  C
   12.78814963    7.50508957   21.71495212   1     294  C
   17.03288592    7.12994110   21.71942986   1     295  C
   21.27901172    6.75329026   21.74411614   1     296  C
   25.52488461    6.37441235   21.76984674   1     297  C
   29.76888931    5.99435052   21.77474630   1     298  C
    6.53291754    9.29623969   21.73601730   1     299  C
   10.77482521    8.91877046   21.72102039   1     300  C
   15.01847005    8.54260632   21.71495159   1     301  C
   19.26438970    8.16641139   21.72677105   1     302  C
   23.51080935    7.78849991   21.74749431   1     303  C
   27.75606102    7.40955879   21.76044581   1     304  C
   31.99905733    7.02984592   21.75358306   1     305  C
    8.76194031   10.33308285   21.72636091   1     306  C
   13.00434487    9.95595913   21.71943055   1     307  C
   17.24941381    9.57935869   21.72101967   1     308  C
   21.49598930    9.20209961   21.73149997   1     309  C
   25.74225725    8.82378362   21.74358822   1     310  C
   29.98648475    8.44498292   21.74621818   1     311  C
   10.99098367   11.37026334   21.72677246   1     312  C
   15.23469196   10.99265395   21.72515857   1     313  C
   19.48068756   10.61541142   21.72636011   1     314  C
   23.72759782   10.23737794   21.73059772   1     315  C
   27.97304703    9.85960023   21.73464161   1     316  C
   32.21598722    9.48133494   21.73338303   1     317  C
    8.97825143   12.78503911   21.73150129   1     318  C
   13.22068297   12.40674906   21.73516094   1     319  C
   17.46580364   12.02884526   21.73265057   1     320  C
   21.71253320   11.65076918   21.72819968   1     321  C
   25.95870541   11.27320451   21.72518648   1     322  C
   30.20300449   10.89589966   21.72590838   1     323  C
   34.44486182   10.51823891   21.72820084   1     324  C
   11.20746844   13.82153678   21.74411589   1     325  C
   15.45125976   13.44248610   21.74587157   1     326  C
   19.69726631   13.06422216   21.73601640   1     327  C
   23.94390111   12.68641815   21.72354061   1     328  C
   28.18939116   12.30973698   21.71851680   1     329  C
   32.43228040   11.93283474   21.72354215   1     330  C
   13.43769218   14.85729160   21.76055709   1     331  C
   17.68258007   14.47793611   21.75373395   1     332  C
   21.92898607   14.09948437   21.73338340   1     333  C
   26.17505996   13.72274483   21.71705011   1     334  C
   30.41921415   13.34691105   21.71705110   1     335  C
   34.66136175   12.97002975   21.73059769   1     336  C
   11.42507073   16.27259284   21.76973704   1     337  C
   15.66867001   15.89241389   21.77439790   1     338  C
   19.91439905   15.51309211   21.75358485   1     339  C
   24.16052360   15.13549272   21.72590712   1     340  C
   28.40563116   14.76000908   21.71352106   1     341  C
   32.64875640   14.38431387   21.72518807   1     342  C
   36.89054455   14.00672597   21.74749452   1     343  C
   13.65569936   17.30769345   21.79130501   1     344  C
   17.90053944   16.92715217   21.77991954   1     345  C
   22.14623020   16.54846391   21.74621907   1     346  C
   26.39175212   16.17241599   21.71851754   1     347  C
   30.63575255   15.79787691   21.71851864   1     348  C
   34.87824031   15.42157492   21.74358861   1     349  C
   15.88735411   18.34220923   21.80452243   1     350  C
   20.13271915   17.96222310   21.77474677   1     351  C
   24.37804217   17.58484374   21.73464169   1     352  C
   28.62261946   17.21037269   21.71705164   1     353  C
   32.86580361   16.83558490   21.73464259   1     354  C
   37.10814366   16.45800906   21.76984519   1     355  C
   13.87491670   19.75804461   21.81903466   1     356  C
   18.11961090   19.37659402   21.80436024   1     357  C
   22.36473861   18.99777835   21.76044543   1     358  C
   26.60943173   18.62251127   21.72518809   1     359  C
   30.85336315   18.24863769   21.72590881   1     360  C
   35.09609274   17.87269200   21.76044604   1     361  C
   39.33882030   17.49342793   21.79764362   1     362  C
   16.10718435   20.79220497   21.82683890   1     363  C
   20.35185875   20.41163975   21.79123818   1     364  C
   24.59639424   20.03467040   21.74358826   1     365  C
   28.84071183   19.66077523   21.72354264   1     366  C
   33.08417789   19.28658341   21.74621954   1     367  C
   37.32697198   18.90896332   21.79123847   1     368  C
   18.33962059   21.82656526   21.81878620   1     369  C
   22.58386481   21.44760545   21.76984715   1     370  C
   26.82793469   21.07262131   21.73059809   1     371  C
   31.07191975   20.69921258   21.73338472   1     372  C
   35.31528358   20.32345366   21.77474775   1     373  C
   39.55845480   19.94414725   21.81878617   1     374  C
   16.32778516   23.24260102   21.83538706   1     375  C
   20.57182481   22.86172014   21.79764363   1     376  C
   24.81553760   22.48480307   21.74749553   1     377  C
   29.05949831   22.11102426   21.72820088   1     378  C
   33.30343556   21.73709101   21.75358530   1     379  C
   37.54672072   21.35966927   21.80436163   1     380  C
   41.79069346   20.97843176   21.83538683   1     381  C
    0.81775639    1.16156819   21.83538684   1     382  C
    5.06172913    0.78033071   21.80436163   1     383  C
    9.30501432    0.40290901   21.75358531   1     384  C
   13.54895156    0.02897574   21.72820089   1     385  C
   17.79291227   -0.34480307   21.74749551   1     386  C
   22.03662507   -0.72172016   21.79764363   1     387  C
   26.28066468   -1.10260104   21.83538706   1     388  C
    3.04999505    2.19585272   21.81878617   1     389  C
    7.29316627    1.81654634   21.77474775   1     390  C
   11.53653011    1.44078742   21.73338476   1     391  C
   15.78051520    1.06737872   21.73059809   1     392  C
   20.02458507    0.69239454   21.76984714   1     393  C
   24.26882930    0.31343470   21.81878620   1     394  C
    5.28147789    3.23103665   21.79123848   1     395  C
    9.52427200    2.85341661   21.74621954   1     396  C
   13.76773805    2.47922480   21.72354265   1     397  C
   18.01205563    2.10532961   21.74358826   1     398  C
   22.25659114    1.72836023   21.79123818   1     399  C
   26.50126555    1.34779501   21.82683890   1     400  C
    3.26962955    4.64657204   21.79764360   1     401  C
    7.51235712    4.26730802   21.76044602   1     402  C
   11.75508673    3.89136234   21.72590881   1     403  C
   15.99901817    3.51748872   21.72518808   1     404  C
   20.24371128    3.14222164   21.76044543   1     405  C
   24.48883895    2.76340594   21.80436023   1     406  C
   28.73353315    2.38195533   21.81903465   1     407  C
    5.50030619    5.68199092   21.76984519   1     408  C
    9.74264624    5.30441509   21.73464257   1     409  C
   13.98583039    4.92962731   21.71705164   1     410  C
   18.23040770    4.55515626   21.73464167   1     411  C
   22.47573072    4.17777685   21.77474676   1     412  C
   26.72109573    3.79779071   21.80452241   1     413  C
    7.73020958    6.71842503   21.74358861   1     414  C
   11.97269732    6.34212311   21.71851866   1     415  C
   16.21669774    5.96758403   21.71851753   1     416  C
   20.46221967    5.59153610   21.74621907   1     417  C
   24.70791045    5.21284780   21.77991953   1     418  C
   28.95275050    4.83230651   21.79130498   1     419  C
    5.71790533    8.13327404   21.74749451   1     420  C
    9.95969347    7.75568611   21.72518807   1     421  C
   14.20281869    7.37999091   21.71352108   1     422  C
   18.44792628    7.00450728   21.72590710   1     423  C
   22.69405082    6.62690786   21.75358486   1     424  C
   26.93977984    6.24758610   21.77439789   1     425  C
   31.18337912    5.86740712   21.76973701   1     426  C
    7.94708812    9.16997021   21.73059768   1     427  C
   12.18923573    8.79308890   21.71705112   1     428  C
   16.43338995    8.41725514   21.71705012   1     429  C
   20.67946383    8.04051560   21.73338343   1     430  C
   24.92586982    7.66206384   21.75373396   1     431  C
   29.17075769    7.28270836   21.76055709   1     432  C
   10.17616945   10.20716523   21.72354216   1     433  C
   14.41905871    9.83026299   21.71851682   1     434  C
   18.66454878    9.45358186   21.72354062   1     435  C
   22.91118357    9.07577786   21.73601643   1     436  C
   27.15719012    8.69751388   21.74587160   1     437  C
   31.40098142    8.31846320   21.74411589   1     438  C
    8.16358802   11.62176104   21.72820084   1     439  C
   12.40544534   11.24410034   21.72590838   1     440  C
   16.64974445   10.86679547   21.72518649   1     441  C
   20.89591667   10.48923085   21.72819970   1     442  C
   25.14264620   10.11115474   21.73265058   1     443  C
   29.38776689    9.73325094   21.73516095   1     444  C
   33.63019843    9.35496085   21.73150129   1     445  C
   10.39246264   12.65866503   21.73338304   1     446  C
   14.63540284   12.28039976   21.73464160   1     447  C
   18.88085207   11.90262205   21.73059771   1     448  C
   23.12776232   11.52458858   21.72636010   1     449  C
   27.37375789   11.14734605   21.72515856   1     450  C
   31.61746617   10.76973666   21.72677245   1     451  C
   12.62196511   13.69501707   21.74621819   1     452  C
   16.86619262   13.31621636   21.74358820   1     453  C
   21.11246058   12.93790041   21.73149995   1     454  C
   25.35903607   12.56064132   21.72101967   1     455  C
   29.60410500   12.18404089   21.71943053   1     456  C
   33.84650954   11.80691713   21.72636091   1     457  C
   10.60939253   15.11015407   21.75358308   1     458  C
   14.85238889   14.73044122   21.76044580   1     459  C
   19.09764056   14.35150010   21.74749430   1     460  C
   23.34406018   13.97358863   21.72677104   1     461  C
   27.58997981   13.59739370   21.71495157   1     462  C
   31.83362464   13.22122954   21.72102039   1     463  C
   36.07553232   12.84376031   21.73601731   1     464  C
   12.83956056   16.14564949   21.77474631   1     465  C
   17.08356528   15.76558765   21.76984675   1     466  C
   21.32943816   15.38670973   21.74411612   1     467  C
   25.57556396   15.01005889   21.71942988   1     468  C
   29.82030023   14.63491042   21.71495210   1     469  C
   34.06313754   14.25857353   21.73265069   1     470  C
   15.07038965   17.18057608   21.79123835   1     471  C
   19.31556115   16.80068720   21.76973716   1     472  C
   23.56128769   16.42280938   21.73516079   1     473  C
   27.80662495   16.04766629   21.71495172   1     474  C
   32.05021537   15.67267701   21.72515969   1     475  C
   36.29250218   15.29538858   21.75373308   1     476  C
   13.05789078   18.59623797   21.80436046   1     477  C
   17.30220483   18.21512181   21.79764321   1     478  C
   21.54755956   17.83601819   21.76055698   1     479  C
   25.79293434   17.45994613   21.72515909   1     480  C
   30.03723640   17.08586854   21.71943137   1     481  C
   34.28011511   16.71004196   21.74587199   1     482  C
   38.52256515   16.33123575   21.77991828   1     483  C
   15.28963395   19.63069074   21.81878586   1     484  C
   19.53445068   19.25002084   21.79130503   1     485  C
   23.77960099   18.87241401   21.74587132   1     486  C
   28.02424358   18.49809557   21.72102132   1     487  C
   32.26785214   18.12390966   21.73516150   1     488  C
   36.51052145   17.74672506   21.77439701   1     489  C
   17.52199423   20.66504223   21.81903387   1     490  C
   21.76660669   20.28566318   21.77439694   1     491  C
   26.01112312   19.91024054   21.73265068   1     492  C
   30.25537666   19.53664547   21.72677325   1     493  C
   34.49858924   19.16124795   21.76055751   1     494  C
   38.74145116   18.78223849   21.80452150   1     495  C
   15.51003707   22.08101207   21.83538622   1     496  C
   19.75436093   21.69994762   21.80452127   1     497  C
   23.99853320   21.32251920   21.75373385   1     498  C
   28.24263275   20.94846236   21.72636119   1     499  C
   32.48648580   20.57480034   21.74411736   1     500  C
   36.72970643   20.19764949   21.79130660   1     501  C
   40.97312586   19.81685793   21.82683956   1     502  C
   17.74251832   23.11532638   21.82683976   1     503  C
   21.98643174   22.73588622   21.77991959   1     504  C
   26.23018988   22.36043069   21.73601708   1     505  C
   30.47424378   21.98710937   21.73150131   1     506  C
   34.71796651   21.61188061   21.76973767   1     507  C
   38.96138128   21.23297744   21.81903467   1     508  C

siesta: Program's energy decomposition (eV):
siesta: Ebs     =    -26960.526950
siesta: Eions   =    143338.147527
siesta: Ena     =     31651.485655
siesta: Ekin    =     57735.371813
siesta: Enl     =     -2929.166804
siesta: Eso     =         0.000000
siesta: Edftu   =         0.000000
siesta: DEna    =      3326.984650
siesta: DUscf   =       169.168888
siesta: DUext   =         0.000000
siesta: Ex      =    -27096.430132
siesta: Ec      =     -2576.619698
siesta: Exc     =    -29673.049829
siesta: EbV     =         0.000000
siesta: eta*DQ  =         0.000000
siesta: Emadel  =         0.000000
siesta: Emeta   =         0.000000
siesta: Emolmec =         0.000000
siesta: Ekinion =         0.000000
siesta: Eharris =    -83106.966945
siesta: Etot    =    -83106.968532
siesta: FreeEng =    -83106.968532

siesta: Final energy (eV):
siesta:  Band Struct. =  -26960.526950
siesta:       Kinetic =   57735.371813
siesta:       Hartree = 1345477.561729
siesta:         Edftu =       0.000000
siesta:       Eso     =       0.000000
siesta:    Ext. field =       0.000000
siesta:         Exch. =  -27096.430132
siesta:         Corr. =   -2576.619698
siesta:     Bulk bias =       0.000000
siesta:   Exch.-corr. =  -29673.049829
siesta:  Ion-electron =-2743209.744688
siesta:       Ion-ion = 1286612.507821
siesta:       Ekinion =       0.000000
siesta: D3 dispersion =     -49.615377
siesta:         Total =  -83106.968532
siesta:         Fermi =      -3.943924

siesta: Stress tensor (static) (eV/Ang**3):
siesta:    -0.016216    0.000005   -0.000000
siesta:     0.000005   -0.016223    0.000000
siesta:    -0.000000    0.000000   -0.002552

siesta: Cell volume =      26623.463814 Ang**3

siesta: Pressure (static):
siesta:                Solid            Molecule  Units
siesta:           0.00012703          0.00012676  Ry/Bohr**3
siesta:           0.01166345          0.01163819  eV/Ang**3
siesta:          18.68691259         18.64644013  kBar
(Free)E+ p_basis*V_orbitals  =      -82800.824379
(Free)Eharris+ p_basis*V_orbitals  =      -82800.822791

siesta: Electric dipole (a.u.)  =   -0.000000    0.000000    0.000103
siesta: Electric dipole (Debye) =   -0.000000    0.000000    0.000262

cite: Please see "Graphene.bib" for an exhaustive BiBTeX file.
cite: Please clearly indicate Siesta version in published work: 5.0.0-alpha-112-g6e4f53aee-dirty
cite: This calculation has made use of the following articles
cite: which are encouraged to be cited in a published work.
        Primary SIESTA paper
          DOI: www.doi.org/10.1088/0953-8984/14/11/302
 
 
>> End of run:  30-NOV-2024  21:53:21
Job completed
